# vtk DataFile Version 2.0
Poisson
ASCII

DATASET STRUCTURED_GRID

FIELD FieldData 1
TIME 1 1 double
1.000000e+00

DIMENSIONS 50 50 1
POINTS 2500 double

0.000000e+00 0.000000e+00 0.000000e+00
0.000000e+00 4.081633e-02 0.000000e+00
0.000000e+00 8.163265e-02 0.000000e+00
0.000000e+00 1.224490e-01 0.000000e+00
0.000000e+00 1.632653e-01 0.000000e+00
0.000000e+00 2.040816e-01 0.000000e+00
0.000000e+00 2.448980e-01 0.000000e+00
0.000000e+00 2.857143e-01 0.000000e+00
0.000000e+00 3.265306e-01 0.000000e+00
0.000000e+00 3.673469e-01 0.000000e+00
0.000000e+00 4.081633e-01 0.000000e+00
0.000000e+00 4.489796e-01 0.000000e+00
0.000000e+00 4.897959e-01 0.000000e+00
0.000000e+00 5.306122e-01 0.000000e+00
0.000000e+00 5.714286e-01 0.000000e+00
0.000000e+00 6.122449e-01 0.000000e+00
0.000000e+00 6.530612e-01 0.000000e+00
0.000000e+00 6.938776e-01 0.000000e+00
0.000000e+00 7.346939e-01 0.000000e+00
0.000000e+00 7.755102e-01 0.000000e+00
0.000000e+00 8.163265e-01 0.000000e+00
0.000000e+00 8.571429e-01 0.000000e+00
0.000000e+00 8.979592e-01 0.000000e+00
0.000000e+00 9.387755e-01 0.000000e+00
0.000000e+00 9.795918e-01 0.000000e+00
0.000000e+00 1.020408e+00 0.000000e+00
0.000000e+00 1.061224e+00 0.000000e+00
0.000000e+00 1.102041e+00 0.000000e+00
0.000000e+00 1.142857e+00 0.000000e+00
0.000000e+00 1.183673e+00 0.000000e+00
0.000000e+00 1.224490e+00 0.000000e+00
0.000000e+00 1.265306e+00 0.000000e+00
0.000000e+00 1.306122e+00 0.000000e+00
0.000000e+00 1.346939e+00 0.000000e+00
0.000000e+00 1.387755e+00 0.000000e+00
0.000000e+00 1.428571e+00 0.000000e+00
0.000000e+00 1.469388e+00 0.000000e+00
0.000000e+00 1.510204e+00 0.000000e+00
0.000000e+00 1.551020e+00 0.000000e+00
0.000000e+00 1.591837e+00 0.000000e+00
0.000000e+00 1.632653e+00 0.000000e+00
0.000000e+00 1.673469e+00 0.000000e+00
0.000000e+00 1.714286e+00 0.000000e+00
0.000000e+00 1.755102e+00 0.000000e+00
0.000000e+00 1.795918e+00 0.000000e+00
0.000000e+00 1.836735e+00 0.000000e+00
0.000000e+00 1.877551e+00 0.000000e+00
0.000000e+00 1.918367e+00 0.000000e+00
0.000000e+00 1.959184e+00 0.000000e+00
0.000000e+00 2.000000e+00 0.000000e+00
2.040816e-02 0.000000e+00 0.000000e+00
2.040816e-02 4.081633e-02 0.000000e+00
2.040816e-02 8.163265e-02 0.000000e+00
2.040816e-02 1.224490e-01 0.000000e+00
2.040816e-02 1.632653e-01 0.000000e+00
2.040816e-02 2.040816e-01 0.000000e+00
2.040816e-02 2.448980e-01 0.000000e+00
2.040816e-02 2.857143e-01 0.000000e+00
2.040816e-02 3.265306e-01 0.000000e+00
2.040816e-02 3.673469e-01 0.000000e+00
2.040816e-02 4.081633e-01 0.000000e+00
2.040816e-02 4.489796e-01 0.000000e+00
2.040816e-02 4.897959e-01 0.000000e+00
2.040816e-02 5.306122e-01 0.000000e+00
2.040816e-02 5.714286e-01 0.000000e+00
2.040816e-02 6.122449e-01 0.000000e+00
2.040816e-02 6.530612e-01 0.000000e+00
2.040816e-02 6.938776e-01 0.000000e+00
2.040816e-02 7.346939e-01 0.000000e+00
2.040816e-02 7.755102e-01 0.000000e+00
2.040816e-02 8.163265e-01 0.000000e+00
2.040816e-02 8.571429e-01 0.000000e+00
2.040816e-02 8.979592e-01 0.000000e+00
2.040816e-02 9.387755e-01 0.000000e+00
2.040816e-02 9.795918e-01 0.000000e+00
2.040816e-02 1.020408e+00 0.000000e+00
2.040816e-02 1.061224e+00 0.000000e+00
2.040816e-02 1.102041e+00 0.000000e+00
2.040816e-02 1.142857e+00 0.000000e+00
2.040816e-02 1.183673e+00 0.000000e+00
2.040816e-02 1.224490e+00 0.000000e+00
2.040816e-02 1.265306e+00 0.000000e+00
2.040816e-02 1.306122e+00 0.000000e+00
2.040816e-02 1.346939e+00 0.000000e+00
2.040816e-02 1.387755e+00 0.000000e+00
2.040816e-02 1.428571e+00 0.000000e+00
2.040816e-02 1.469388e+00 0.000000e+00
2.040816e-02 1.510204e+00 0.000000e+00
2.040816e-02 1.551020e+00 0.000000e+00
2.040816e-02 1.591837e+00 0.000000e+00
2.040816e-02 1.632653e+00 0.000000e+00
2.040816e-02 1.673469e+00 0.000000e+00
2.040816e-02 1.714286e+00 0.000000e+00
2.040816e-02 1.755102e+00 0.000000e+00
2.040816e-02 1.795918e+00 0.000000e+00
2.040816e-02 1.836735e+00 0.000000e+00
2.040816e-02 1.877551e+00 0.000000e+00
2.040816e-02 1.918367e+00 0.000000e+00
2.040816e-02 1.959184e+00 0.000000e+00
2.040816e-02 2.000000e+00 0.000000e+00
4.081633e-02 0.000000e+00 0.000000e+00
4.081633e-02 4.081633e-02 0.000000e+00
4.081633e-02 8.163265e-02 0.000000e+00
4.081633e-02 1.224490e-01 0.000000e+00
4.081633e-02 1.632653e-01 0.000000e+00
4.081633e-02 2.040816e-01 0.000000e+00
4.081633e-02 2.448980e-01 0.000000e+00
4.081633e-02 2.857143e-01 0.000000e+00
4.081633e-02 3.265306e-01 0.000000e+00
4.081633e-02 3.673469e-01 0.000000e+00
4.081633e-02 4.081633e-01 0.000000e+00
4.081633e-02 4.489796e-01 0.000000e+00
4.081633e-02 4.897959e-01 0.000000e+00
4.081633e-02 5.306122e-01 0.000000e+00
4.081633e-02 5.714286e-01 0.000000e+00
4.081633e-02 6.122449e-01 0.000000e+00
4.081633e-02 6.530612e-01 0.000000e+00
4.081633e-02 6.938776e-01 0.000000e+00
4.081633e-02 7.346939e-01 0.000000e+00
4.081633e-02 7.755102e-01 0.000000e+00
4.081633e-02 8.163265e-01 0.000000e+00
4.081633e-02 8.571429e-01 0.000000e+00
4.081633e-02 8.979592e-01 0.000000e+00
4.081633e-02 9.387755e-01 0.000000e+00
4.081633e-02 9.795918e-01 0.000000e+00
4.081633e-02 1.020408e+00 0.000000e+00
4.081633e-02 1.061224e+00 0.000000e+00
4.081633e-02 1.102041e+00 0.000000e+00
4.081633e-02 1.142857e+00 0.000000e+00
4.081633e-02 1.183673e+00 0.000000e+00
4.081633e-02 1.224490e+00 0.000000e+00
4.081633e-02 1.265306e+00 0.000000e+00
4.081633e-02 1.306122e+00 0.000000e+00
4.081633e-02 1.346939e+00 0.000000e+00
4.081633e-02 1.387755e+00 0.000000e+00
4.081633e-02 1.428571e+00 0.000000e+00
4.081633e-02 1.469388e+00 0.000000e+00
4.081633e-02 1.510204e+00 0.000000e+00
4.081633e-02 1.551020e+00 0.000000e+00
4.081633e-02 1.591837e+00 0.000000e+00
4.081633e-02 1.632653e+00 0.000000e+00
4.081633e-02 1.673469e+00 0.000000e+00
4.081633e-02 1.714286e+00 0.000000e+00
4.081633e-02 1.755102e+00 0.000000e+00
4.081633e-02 1.795918e+00 0.000000e+00
4.081633e-02 1.836735e+00 0.000000e+00
4.081633e-02 1.877551e+00 0.000000e+00
4.081633e-02 1.918367e+00 0.000000e+00
4.081633e-02 1.959184e+00 0.000000e+00
4.081633e-02 2.000000e+00 0.000000e+00
6.122449e-02 0.000000e+00 0.000000e+00
6.122449e-02 4.081633e-02 0.000000e+00
6.122449e-02 8.163265e-02 0.000000e+00
6.122449e-02 1.224490e-01 0.000000e+00
6.122449e-02 1.632653e-01 0.000000e+00
6.122449e-02 2.040816e-01 0.000000e+00
6.122449e-02 2.448980e-01 0.000000e+00
6.122449e-02 2.857143e-01 0.000000e+00
6.122449e-02 3.265306e-01 0.000000e+00
6.122449e-02 3.673469e-01 0.000000e+00
6.122449e-02 4.081633e-01 0.000000e+00
6.122449e-02 4.489796e-01 0.000000e+00
6.122449e-02 4.897959e-01 0.000000e+00
6.122449e-02 5.306122e-01 0.000000e+00
6.122449e-02 5.714286e-01 0.000000e+00
6.122449e-02 6.122449e-01 0.000000e+00
6.122449e-02 6.530612e-01 0.000000e+00
6.122449e-02 6.938776e-01 0.000000e+00
6.122449e-02 7.346939e-01 0.000000e+00
6.122449e-02 7.755102e-01 0.000000e+00
6.122449e-02 8.163265e-01 0.000000e+00
6.122449e-02 8.571429e-01 0.000000e+00
6.122449e-02 8.979592e-01 0.000000e+00
6.122449e-02 9.387755e-01 0.000000e+00
6.122449e-02 9.795918e-01 0.000000e+00
6.122449e-02 1.020408e+00 0.000000e+00
6.122449e-02 1.061224e+00 0.000000e+00
6.122449e-02 1.102041e+00 0.000000e+00
6.122449e-02 1.142857e+00 0.000000e+00
6.122449e-02 1.183673e+00 0.000000e+00
6.122449e-02 1.224490e+00 0.000000e+00
6.122449e-02 1.265306e+00 0.000000e+00
6.122449e-02 1.306122e+00 0.000000e+00
6.122449e-02 1.346939e+00 0.000000e+00
6.122449e-02 1.387755e+00 0.000000e+00
6.122449e-02 1.428571e+00 0.000000e+00
6.122449e-02 1.469388e+00 0.000000e+00
6.122449e-02 1.510204e+00 0.000000e+00
6.122449e-02 1.551020e+00 0.000000e+00
6.122449e-02 1.591837e+00 0.000000e+00
6.122449e-02 1.632653e+00 0.000000e+00
6.122449e-02 1.673469e+00 0.000000e+00
6.122449e-02 1.714286e+00 0.000000e+00
6.122449e-02 1.755102e+00 0.000000e+00
6.122449e-02 1.795918e+00 0.000000e+00
6.122449e-02 1.836735e+00 0.000000e+00
6.122449e-02 1.877551e+00 0.000000e+00
6.122449e-02 1.918367e+00 0.000000e+00
6.122449e-02 1.959184e+00 0.000000e+00
6.122449e-02 2.000000e+00 0.000000e+00
8.163265e-02 0.000000e+00 0.000000e+00
8.163265e-02 4.081633e-02 0.000000e+00
8.163265e-02 8.163265e-02 0.000000e+00
8.163265e-02 1.224490e-01 0.000000e+00
8.163265e-02 1.632653e-01 0.000000e+00
8.163265e-02 2.040816e-01 0.000000e+00
8.163265e-02 2.448980e-01 0.000000e+00
8.163265e-02 2.857143e-01 0.000000e+00
8.163265e-02 3.265306e-01 0.000000e+00
8.163265e-02 3.673469e-01 0.000000e+00
8.163265e-02 4.081633e-01 0.000000e+00
8.163265e-02 4.489796e-01 0.000000e+00
8.163265e-02 4.897959e-01 0.000000e+00
8.163265e-02 5.306122e-01 0.000000e+00
8.163265e-02 5.714286e-01 0.000000e+00
8.163265e-02 6.122449e-01 0.000000e+00
8.163265e-02 6.530612e-01 0.000000e+00
8.163265e-02 6.938776e-01 0.000000e+00
8.163265e-02 7.346939e-01 0.000000e+00
8.163265e-02 7.755102e-01 0.000000e+00
8.163265e-02 8.163265e-01 0.000000e+00
8.163265e-02 8.571429e-01 0.000000e+00
8.163265e-02 8.979592e-01 0.000000e+00
8.163265e-02 9.387755e-01 0.000000e+00
8.163265e-02 9.795918e-01 0.000000e+00
8.163265e-02 1.020408e+00 0.000000e+00
8.163265e-02 1.061224e+00 0.000000e+00
8.163265e-02 1.102041e+00 0.000000e+00
8.163265e-02 1.142857e+00 0.000000e+00
8.163265e-02 1.183673e+00 0.000000e+00
8.163265e-02 1.224490e+00 0.000000e+00
8.163265e-02 1.265306e+00 0.000000e+00
8.163265e-02 1.306122e+00 0.000000e+00
8.163265e-02 1.346939e+00 0.000000e+00
8.163265e-02 1.387755e+00 0.000000e+00
8.163265e-02 1.428571e+00 0.000000e+00
8.163265e-02 1.469388e+00 0.000000e+00
8.163265e-02 1.510204e+00 0.000000e+00
8.163265e-02 1.551020e+00 0.000000e+00
8.163265e-02 1.591837e+00 0.000000e+00
8.163265e-02 1.632653e+00 0.000000e+00
8.163265e-02 1.673469e+00 0.000000e+00
8.163265e-02 1.714286e+00 0.000000e+00
8.163265e-02 1.755102e+00 0.000000e+00
8.163265e-02 1.795918e+00 0.000000e+00
8.163265e-02 1.836735e+00 0.000000e+00
8.163265e-02 1.877551e+00 0.000000e+00
8.163265e-02 1.918367e+00 0.000000e+00
8.163265e-02 1.959184e+00 0.000000e+00
8.163265e-02 2.000000e+00 0.000000e+00
1.020408e-01 0.000000e+00 0.000000e+00
1.020408e-01 4.081633e-02 0.000000e+00
[...]
POINT_DATA 2500

SCALARS U double 1
LOOKUP_TABLE default

0.000000e+00
0.000000e+00
0.000000e+00
0.000000e+00
0.000000e+00
0.000000e+00
0.000000e+00
0.000000e+00
0.000000e+00
0.000000e+00
0.000000e+00
0.000000e+00
0.000000e+00
0.000000e+00
0.000000e+00
0.000000e+00
0.000000e+00
0.000000e+00
0.000000e+00
0.000000e+00
0.000000e+00
0.000000e+00
0.000000e+00
0.000000e+00
0.000000e+00
0.000000e+00
0.000000e+00
0.000000e+00
0.000000e+00
0.000000e+00
0.000000e+00
0.000000e+00
0.000000e+00
0.000000e+00
0.000000e+00
0.000000e+00
0.000000e+00
0.000000e+00
0.000000e+00
0.000000e+00
0.000000e+00
0.000000e+00
0.000000e+00
0.000000e+00
0.000000e+00
0.000000e+00
0.000000e+00
0.000000e+00
0.000000e+00
0.000000e+00
0.000000e+00
-7.595305e-06
-1.878378e-05
-3.532308e-05
-6.524171e-05
-1.089737e-04
-1.814175e-04
-2.774411e-04
-4.150099e-04
-5.685731e-04
-7.406025e-04
-8.647770e-04
-9.247760e-04
-8.647771e-04
-7.406030e-04
-5.685746e-04
-4.150146e-04
-2.774528e-04
-1.814517e-04
-1.090543e-04
-6.545498e-05
-3.579428e-05
-1.991912e-05
-9.941607e-06
-5.151900e-06
-2.345119e-06
-1.132111e-06
-4.657202e-07
-2.023247e-07
-6.430230e-08
-5.666463e-09
2.633926e-08
5.426621e-08
6.904265e-08
9.569859e-08
1.022878e-07
1.231916e-07
1.161038e-07
1.232414e-07
1.024410e-07
9.624354e-08
7.049828e-08
5.893451e-08
3.806309e-08
2.847734e-08
1.620399e-08
1.080790e-08
5.207076e-09
2.546982e-09
0.000000e+00
0.000000e+00
-1.567112e-05
-3.622986e-05
-7.249353e-05
-1.270301e-04
-2.225745e-04
-3.569402e-04
-5.660310e-04
-8.260213e-04
-1.164679e-03
-1.493169e-03
-1.784892e-03
-1.879551e-03
-1.784893e-03
-1.493170e-03
-1.164683e-03
-8.260297e-04
-5.660566e-04
-3.570025e-04
-2.227476e-04
-1.274253e-04
-7.349167e-05
-3.836382e-05
-2.057935e-05
-9.808070e-06
-4.905193e-06
-2.127567e-06
-9.842018e-07
-3.733060e-07
-1.322493e-07
-4.675399e-09
6.917062e-08
1.118201e-07
1.711186e-07
1.964139e-07
2.520068e-07
2.533811e-07
2.856398e-07
2.534673e-07
2.523536e-07
1.973740e-07
1.743520e-07
1.201959e-07
9.476293e-08
5.762658e-08
4.071587e-08
2.166699e-08
1.322015e-08
5.065685e-09
0.000000e+00
0.000000e+00
-2.252502e-05
-5.575663e-05
-1.050958e-04
-1.946030e-04
-3.264701e-04
-5.462392e-04
-8.418960e-04
-1.270910e-03
-1.763328e-03
-2.327261e-03
-2.754274e-03
-2.961629e-03
-2.754275e-03
-2.327262e-03
-1.763332e-03
-1.270924e-03
-8.419306e-04
-5.463400e-04
-3.267079e-04
-1.952326e-04
-1.064876e-04
-5.911097e-05
-2.946380e-05
-1.524502e-05
-6.933954e-06
-3.341300e-06
-1.369566e-06
-5.853745e-07
-1.718257e-07
1.410472e-08
1.198011e-07
2.238476e-07
2.816953e-07
3.865943e-07
4.152805e-07
4.971436e-07
4.712837e-07
4.972905e-07
4.157325e-07
3.882013e-07
2.859893e-07
2.376147e-07
1.543886e-07
1.148185e-07
6.576229e-08
4.361113e-08
2.116013e-08
1.028920e-08
0.000000e+00
0.000000e+00
-3.075553e-05
-7.125652e-05
-1.429187e-04
-2.515861e-04
-4.430897e-04
-7.165662e-04
-1.147719e-03
-1.699947e-03
-2.438590e-03
-3.195582e-03
-3.894062e-03
-4.147385e-03
-3.894062e-03
-3.195584e-03
-2.438596e-03
-1.699964e-03
-1.147769e-03
-7.166878e-04
-4.434272e-04
-2.523573e-04
-1.448667e-04
-7.542574e-05
-4.035021e-05
-1.920504e-05
-9.585516e-06
-4.149804e-06
-1.906039e-06
-7.047823e-07
-2.148290e-07
5.294334e-08
2.346582e-07
3.474249e-07
5.174783e-07
5.958279e-07
7.580170e-07
7.678368e-07
8.590933e-07
7.680049e-07
7.586923e-07
5.976988e-07
5.237760e-07
3.637463e-07
2.845117e-07
1.743821e-07
1.222701e-07
6.563021e-08
3.974666e-08
1.536728e-08
0.000000e+00
0.000000e+00
-3.654967e-05
-9.061533e-05
-1.714903e-04
-3.189574e-04
-5.392161e-04
-9.104100e-04
-1.423273e-03
-2.186198e-03
-3.109265e-03
-4.218778e-03
-5.145139e-03
-5.614855e-03
-5.145139e-03
-4.218780e-03
-3.109272e-03
-2.186221e-03
-1.423329e-03
-9.105722e-04
-5.395989e-04
-3.199708e-04
-1.737333e-04
-9.602290e-05
-4.775403e-05
-2.464246e-05
-1.119112e-05
-5.372143e-06
-2.181885e-06
-8.935186e-07
-2.022871e-07
1.494582e-07
3.667524e-07
6.226361e-07
7.761872e-07
1.052072e-06
1.138846e-06
1.352027e-06
1.292489e-06
1.352263e-06
1.139572e-06
1.054654e-06
7.830893e-07
6.447544e-07
4.223587e-07
3.113307e-07
1.799099e-07
1.182978e-07
5.795714e-08
2.794092e-08
0.000000e+00
0.000000e+00
-4.444461e-05
-1.032718e-04
-2.078121e-04
-3.681308e-04
-6.530729e-04
-1.068837e-03
-1.737479e-03
-2.632414e-03
-3.884349e-03
-5.287761e-03
-6.694953e-03
-7.317184e-03
-6.694954e-03
-5.287764e-03
-3.884358e-03
-2.632438e-03
-1.737550e-03
-1.069011e-03
-6.535563e-04
-3.692367e-04
-2.106058e-04
-1.092597e-04
-5.823484e-05
-2.766483e-05
-1.376657e-05
-5.937302e-06
-2.685492e-06
-9.329712e-07
-1.673827e-07
2.795858e-07
6.621986e-07
9.234303e-07
1.343560e-06
1.555594e-06
1.961397e-06
2.004397e-06
2.223596e-06
2.004638e-06
1.962362e-06
1.558270e-06
1.352562e-06
9.467776e-07
7.334827e-07
4.533775e-07
3.149650e-07
1.706476e-07
1.024291e-07
3.999574e-08
0.000000e+00
0.000000e+00
-4.874390e-05
-1.210714e-04
-2.301894e-04
-4.303816e-04
-7.342242e-04
-1.253557e-03
-1.995111e-03
-3.137030e-03
-4.621563e-03
-6.555252e-03
-8.441008e-03
-9.551139e-03
-8.441009e-03
-6.555255e-03
-4.621572e-03
-3.137060e-03
-1.995185e-03
-1.253771e-03
-7.347301e-04
-4.317208e-04
-2.331571e-04
-1.282293e-04
-6.360194e-05
-3.271726e-05
-1.482477e-05
-7.069707e-06
-2.814277e-06
-1.041024e-06
-5.282317e-08
5.613623e-07
9.879901e-07
1.578577e-06
1.962956e-06
2.632651e-06
2.874648e-06
3.385003e-06
3.264243e-06
3.385314e-06
2.875606e-06
2.636052e-06
1.972054e-06
1.607717e-06
1.061309e-06
7.747350e-07
4.514962e-07
2.941273e-07
1.454547e-07
6.948663e-08
0.000000e+00
0.000000e+00
-5.564892e-05
-1.296734e-04
-2.618071e-04
-4.667197e-04
-8.342634e-04
-1.382721e-03
-2.285361e-03
-3.555993e-03
-5.444584e-03
-7.834726e-03
-1.062308e-02
-1.234016e-02
-1.062308e-02
-7.834729e-03
-5.444596e-03
-3.556022e-03
-2.285449e-03
-1.382938e-03
-8.348634e-04
-4.680935e-04
-2.652783e-04
-1.371238e-04
-7.282002e-05
-3.452164e-05
-1.711398e-05
-7.327204e-06
-3.210223e-06
-9.528135e-07
1.631313e-07
8.900282e-07
1.686732e-06
2.285275e-06
3.271966e-06
3.816632e-06
4.774793e-06
4.923387e-06
5.417621e-06
4.923685e-06
4.775987e-06
3.819944e-06
3.283101e-06
2.314173e-06
1.774930e-06
1.105259e-06
7.604199e-07
4.154330e-07
2.470706e-07
9.735714e-08
0.000000e+00
0.000000e+00
-5.796005e-05
-1.441962e-04
-2.752302e-04
-5.169789e-04
-8.890739e-04
-1.533786e-03
-2.483612e-03
-4.002639e-03
-6.142218e-03
-9.260730e-03
-1.307297e-02
-1.625978e-02
-1.307297e-02
-9.260734e-03
-6.142229e-03
-4.002674e-03
-2.483699e-03
-1.534039e-03
-8.896706e-04
-5.185586e-04
-2.787343e-04
-1.526513e-04
-7.553675e-05
-3.874300e-05
-1.749797e-05
-8.248305e-06
-3.141276e-06
-8.801286e-07
4.763477e-07
1.571349e-06
2.435013e-06
3.760602e-06
4.691482e-06
6.241462e-06
6.877330e-06
8.039717e-06
7.818041e-06
8.040082e-06
6.878455e-06
6.245454e-06
4.702168e-06
3.794811e-06
2.521159e-06
1.821998e-06
1.069381e-06
6.900329e-07
3.440243e-07
1.628686e-07
0.000000e+00
0.000000e+00
-6.318530e-05
-1.475196e-04
-2.985615e-04
-5.346515e-04
-9.611697e-04
-1.608573e-03
-2.695398e-03
-4.294147e-03
-6.827739e-03
-1.051330e-02
-1.596351e-02
-2.177281e-02
-1.596351e-02
-1.051331e-02
-6.827752e-03
-4.294180e-03
-2.695498e-03
-1.608817e-03
-9.618464e-04
-5.362019e-04
-3.024795e-04
-1.559366e-04
-8.259433e-05
-3.907719e-05
-1.927883e-05
-8.133747e-06
-3.322878e-06
-5.812758e-07
1.067989e-06
2.310503e-06
3.975347e-06
5.334607e-06
7.559438e-06
8.894821e-06
1.105689e-05
1.150206e-05
1.256331e-05
1.150240e-05
1.105823e-05
8.898534e-06
7.571919e-06
5.367023e-06
4.074263e-06
2.552103e-06
1.738470e-06
9.562981e-07
5.634838e-07
2.238083e-07
0.000000e+00
0.000000e+00
-6.312331e-05
-1.571880e-04
-3.006309e-04
-5.661692e-04
-9.780443e-04
-1.697865e-03
-2.779203e-03
-4.557080e-03
-7.225266e-03
-1.160183e-02
-1.876429e-02
-3.049686e-02
-1.876429e-02
-1.160183e-02
-7.225278e-03
-4.557118e-03
-2.779296e-03
-1.698138e-03
-9.786909e-04
-5.678812e-04
-3.044298e-04
-1.663563e-04
-8.219563e-05
-4.206209e-05
-1.889637e-05
-8.709887e-06
-2.987162e-06
-1.571969e-07
1.761318e-06
3.796429e-06
5.592077e-06
8.478425e-06
1.064976e-05
1.408549e-05
1.566568e-05
1.820020e-05
1.783911e-05
1.820060e-05
1.566689e-05
1.408978e-05
1.066124e-05
8.515184e-06
5.684718e-06
4.065992e-06
2.399695e-06
1.533440e-06
7.696587e-07
3.611549e-07
0.000000e+00
0.000000e+00
-6.615577e-05
-1.545119e-04
-3.129554e-04
-5.611027e-04
-1.010640e-03
-1.696778e-03
-2.857984e-03
-4.597437e-03
-7.448159e-03
-1.199387e-02
-2.073109e-02
-4.508720e-02
-2.073109e-02
-1.199388e-02
-7.448172e-03
-4.597471e-03
-2.858088e-03
-1.697033e-03
-1.011347e-03
-5.627209e-04
-3.170447e-04
-1.632979e-04
-8.641828e-05
-4.080503e-05
-1.998185e-05
-8.170086e-06
-2.804209e-06
4.947446e-07
3.077460e-06
5.342220e-06
8.786692e-06
1.180100e-05
1.661683e-05
1.974005e-05
2.441712e-05
2.562225e-05
2.780124e-05
2.562259e-05
2.441850e-05
1.974388e-05
1.662970e-05
1.183445e-05
8.888773e-06
5.591774e-06
3.770235e-06
2.084964e-06
1.217085e-06
4.866644e-07
0.000000e+00
0.000000e+00
-6.363815e-05
-1.584619e-04
-3.028538e-04
-5.701601e-04
-9.840866e-04
-1.707423e-03
-2.792204e-03
-4.575270e-03
-7.247304e-03
-1.162891e-02
-1.879318e-02
-3.052787e-02
-1.879318e-02
-1.162891e-02
-7.247316e-03
-4.575308e-03
-2.792298e-03
-1.707698e-03
-9.847376e-04
-5.718839e-04
-3.066774e-04
-1.676892e-04
-8.282435e-05
-4.230630e-05
-1.881447e-05
-8.265190e-06
-2.104526e-06
1.551793e-06
4.473092e-06
8.351808e-06
1.208885e-05
1.815149e-05
2.300706e-05
3.031159e-05
3.403655e-05
3.934300e-05
3.885279e-05
3.934338e-05
3.403774e-05
3.031583e-05
2.301842e-05
1.818788e-05
1.218066e-05
8.619092e-06
5.106708e-06
3.230830e-06
1.630146e-06
7.582809e-07
0.000000e+00
0.000000e+00
-6.433209e-05
-1.500198e-04
-3.034843e-04
-5.425625e-04
-9.744683e-04
-1.627707e-03
-2.723892e-03
-4.330862e-03
-6.875936e-03
-1.056828e-02
-1.602665e-02
-2.183587e-02
-1.602665e-02
-1.056828e-02
-6.875949e-03
-4.330895e-03
-2.723994e-03
-1.627954e-03
-9.751553e-04
-5.441351e-04
-3.074583e-04
-1.585497e-04
-8.399672e-05
-3.955100e-05
-1.909219e-05
-7.263141e-06
-1.344416e-06
2.792597e-06
7.101771e-06
1.139682e-05
1.834984e-05
2.480376e-05
3.480723e-05
4.177803e-05
5.149945e-05
5.451291e-05
5.880431e-05
5.451323e-05
5.150075e-05
4.178165e-05
3.481942e-05
2.483549e-05
1.844679e-05
1.163411e-05
7.761136e-06
4.307897e-06
2.490940e-06
1.001501e-06
0.000000e+00
0.000000e+00
-5.968713e-05
-1.484644e-04
-2.827113e-04
-5.304098e-04
-9.095168e-04
-1.566147e-03
-2.527885e-03
-4.064639e-03
-6.217752e-03
-9.353565e-03
-1.317241e-02
-1.636630e-02
-1.317241e-02
-9.353569e-03
-6.217763e-03
-4.064674e-03
-2.527974e-03
-1.566406e-03
-9.101282e-04
-5.320287e-04
-2.862972e-04
-1.571149e-04
-7.764228e-05
-3.955318e-05
-1.721248e-05
-6.738701e-06
-1.388783e-07
4.925844e-06
9.733983e-06
1.712172e-05
2.473561e-05
3.697678e-05
4.736557e-05
6.228308e-05
7.063935e-05
8.133860e-05
8.090146e-05
8.133895e-05
7.064042e-05
6.228691e-05
4.737584e-05
3.700973e-05
2.481891e-05
1.736456e-05
1.031063e-05
6.456129e-06
3.269855e-06
1.507936e-06
0.000000e+00
0.000000e+00
-5.832645e-05
-1.355416e-04
-2.733545e-04
-4.854051e-04
-8.656992e-04
-1.428311e-03
-2.353357e-03
-3.644327e-03
-5.560686e-03
-7.968095e-03
-1.077613e-02
-1.249368e-02
-1.077613e-02
-7.968098e-03
-5.560698e-03
-3.644357e-03
-2.353449e-03
-1.428536e-03
-8.663227e-04
-4.868302e-04
-2.769547e-04
-1.432527e-04
-7.608636e-05
-3.561825e-05
-1.665501e-05
-5.245775e-06
1.498322e-06
7.123235e-06
1.459890e-05
2.279007e-05
3.635170e-05
4.961290e-05
6.956089e-05
8.442846e-05
1.038916e-04
1.109484e-04
1.190840e-04
1.109487e-04
1.038927e-04
8.443155e-05
6.957133e-05
4.964015e-05
3.643515e-05
2.299489e-05
1.516933e-05
8.437306e-06
4.831626e-06
1.950876e-06
0.000000e+00
0.000000e+00
-5.224360e-05
-1.297059e-04
-2.454383e-04
-4.577731e-04
-7.763021e-04
-1.320295e-03
-2.087348e-03
-3.266507e-03
-4.780859e-03
-6.751232e-03
-8.652473e-03
-9.777023e-03
-8.652474e-03
-6.751236e-03
-4.780868e-03
-3.266538e-03
-2.087426e-03
-1.320522e-03
-7.768372e-04
-4.591897e-04
-2.485689e-04
-1.372513e-04
-6.785588e-05
-3.432787e-05
-1.420904e-05
-3.948391e-06
3.415318e-06
1.098618e-05
1.928493e-05
3.306050e-05
4.804289e-05
7.176422e-05
9.302631e-05
1.223433e-04
1.402455e-04
1.610918e-04
1.613342e-04
1.610921e-04
1.402463e-04
1.223464e-04
9.303455e-05
7.179073e-05
4.811020e-05
3.325750e-05
1.975465e-05
1.223728e-05
6.212165e-06
2.840373e-06
0.000000e+00
0.000000e+00
-4.944184e-05
-1.143027e-04
-2.295159e-04
-4.035925e-04
-7.128513e-04
-1.156514e-03
-1.868677e-03
-2.804889e-03
-4.111717e-03
-5.551654e-03
-6.997749e-03
-7.622644e-03
-6.997750e-03
-5.551656e-03
-4.111727e-03
-2.804915e-03
-1.868755e-03
-1.156704e-03
-7.133778e-04
-4.047926e-04
-2.325454e-04
-1.207694e-04
-6.430989e-05
-2.968520e-05
-1.284991e-05
-1.926774e-06
6.337373e-06
1.466715e-05
2.772160e-05
4.302923e-05
6.845030e-05
9.453036e-05
1.327505e-04
1.631119e-04
2.007535e-04
2.163862e-04
2.312990e-04
2.163864e-04
2.007543e-04
1.631141e-04
1.327582e-04
9.455050e-05
6.851236e-05
4.318266e-05
2.815158e-05
1.566419e-05
8.881441e-06
3.597016e-06
0.000000e+00
0.000000e+00
-4.278532e-05
-1.059794e-04
-1.988776e-04
-3.682349e-04
-6.157995e-04
-1.032326e-03
-1.593993e-03
-2.426942e-03
-3.409298e-03
-4.588965e-03
-5.548324e-03
-6.044408e-03
-5.548325e-03
-4.588968e-03
-3.409306e-03
-2.426967e-03
-1.594057e-03
-1.032510e-03
-6.162333e-04
-3.693824e-04
-2.014041e-04
-1.120587e-04
-5.530519e-05
-2.744502e-05
-1.001275e-05
3.276534e-07
9.243020e-06
2.114230e-05
3.559496e-05
6.042056e-05
8.869297e-05
1.327866e-04
1.744395e-04
2.299989e-04
2.667637e-04
3.061761e-04
3.087202e-04
3.061763e-04
2.667643e-04
2.300008e-04
1.744448e-04
1.328039e-04
8.873742e-05
6.055213e-05
3.591259e-05
2.199751e-05
1.117614e-05
5.066624e-06
0.000000e+00
0.000000e+00
-3.928248e-05
-9.023014e-05
-1.802829e-04
-3.133254e-04
-5.475451e-04
-8.718526e-04
-1.381379e-03
-2.011643e-03
-2.851774e-03
-3.681354e-03
-4.452299e-03
-4.714213e-03
-4.452300e-03
-3.681356e-03
-2.851782e-03
-2.011663e-03
-1.381440e-03
-8.720000e-04
-5.479541e-04
-3.142540e-04
-1.826230e-04
-9.520009e-05
-5.067407e-05
-2.259788e-05
-7.904344e-06
2.938341e-06
1.396008e-05
2.697910e-05
4.934767e-05
7.695019e-05
1.226131e-04
1.716531e-04
2.420871e-04
3.015846e-04
3.721418e-04
4.051830e-04
4.317678e-04
4.051831e-04
3.721422e-04
3.015857e-04
2.420910e-04
1.716637e-04
1.226466e-04
7.703517e-05
4.959126e-05
2.755740e-05
1.546614e-05
6.275511e-06
0.000000e+00
0.000000e+00
-3.286334e-05
-8.121539e-05
-1.509407e-04
-2.773492e-04
-4.567687e-04
-7.548828e-04
-1.138581e-03
-1.692396e-03
-2.296888e-03
-2.989345e-03
-3.483532e-03
-3.737253e-03
-3.483532e-03
-2.989347e-03
-2.296894e-03
-1.692415e-03
-1.138628e-03
-7.550196e-04
-4.570886e-04
-2.781938e-04
-1.527898e-04
-8.564941e-05
-4.193051e-05
-1.977197e-05
-4.833223e-06
6.364629e-06
1.817782e-05
3.712380e-05
6.179188e-05
1.047148e-04
1.556891e-04
2.342927e-04
3.124688e-04
4.142268e-04
4.868990e-04
5.595750e-04
5.681079e-04
5.595750e-04
4.868991e-04
4.142273e-04
3.124703e-04
2.342981e-04
1.557044e-04
1.047634e-04
6.191743e-05
3.748126e-05
1.903100e-05
8.554599e-06
0.000000e+00
0.000000e+00
-2.932222e-05
-6.685732e-05
-1.329335e-04
-2.281201e-04
-3.945539e-04
-6.165170e-04
-9.598637e-04
-1.360481e-03
-1.879555e-03
-2.346904e-03
-2.770122e-03
-2.887154e-03
-2.770123e-03
-2.346906e-03
-1.879560e-03
-1.360495e-03
-9.599064e-04
-6.166197e-04
-3.948381e-04
-2.287609e-04
-1.345412e-04
-7.024336e-05
-3.703395e-05
-1.514112e-05
-2.014268e-06
9.637082e-06
2.524296e-05
4.583797e-05
8.284811e-05
1.304666e-04
2.089212e-04
2.970391e-04
4.219953e-04
5.341404e-04
6.628203e-04
7.300028e-04
7.764569e-04
7.300027e-04
6.628201e-04
5.341402e-04
4.219945e-04
2.970380e-04
2.089195e-04
1.304678e-04
8.286469e-05
4.590866e-05
2.549732e-05
1.035324e-05
0.000000e+00
0.000000e+00
-2.372788e-05
-5.852647e-05
-1.076486e-04
-1.963936e-04
-3.184568e-04
-5.196237e-04
-7.668288e-04
-1.117858e-03
-1.475152e-03
-1.876484e-03
-2.133259e-03
-2.273691e-03
-2.133260e-03
-1.876486e-03
-1.475156e-03
-1.117870e-03
-7.668593e-04
-5.197121e-04
-3.186616e-04
-1.969308e-04
-1.088121e-04
-6.129175e-05
-2.930825e-05
-1.202521e-05
1.173563e-06
1.444430e-05
3.106081e-05
6.070899e-05
1.012522e-04
1.721343e-04
2.597374e-04
3.940583e-04
5.347244e-04
7.152308e-04
8.541159e-04
9.856837e-04
1.008033e-03
9.856836e-04
8.541155e-04
7.152296e-04
5.347214e-04
3.940496e-04
2.597179e-04
1.720841e-04
1.011502e-04
6.047978e-05
3.064682e-05
1.366050e-05
0.000000e+00
0.000000e+00
-2.060715e-05
-4.661473e-05
-9.229129e-05
-1.563375e-04
-2.679487e-04
-4.112209e-04
-6.310108e-04
-8.736674e-04
-1.184338e-03
-1.442204e-03
-1.678036e-03
-1.730443e-03
-1.678036e-03
-1.442205e-03
-1.184341e-03
-8.736756e-04
-6.310357e-04
-4.112802e-04
-2.681111e-04
-1.566977e-04
-9.318269e-05
-4.845593e-05
-2.472375e-05
-7.888237e-06
4.677403e-06
1.841507e-05
4.093383e-05
7.285624e-05
1.314278e-04
2.096217e-04
3.383183e-04
4.894912e-04
7.029818e-04
9.067265e-04
1.136068e-03
1.268669e-03
1.349124e-03
1.268669e-03
1.136067e-03
9.067245e-04
7.029756e-04
4.894762e-04
3.382757e-04
2.095255e-04
1.311818e-04
7.234153e-05
3.975240e-05
1.613631e-05
0.000000e+00
0.000000e+00
-1.613631e-05
-3.975240e-05
-7.234153e-05
-1.311818e-04
-2.095255e-04
-3.382757e-04
-4.894762e-04
-7.029756e-04
-9.067245e-04
-1.136067e-03
-1.268669e-03
-1.349124e-03
-1.268669e-03
-1.136068e-03
-9.067265e-04
-7.029818e-04
-4.894912e-04
-3.383183e-04
-2.096217e-04
-1.314278e-04
-7.285624e-05
-4.093383e-05
-1.841507e-05
-4.677403e-06
7.888237e-06
2.472375e-05
4.845593e-05
9.318269e-05
1.566977e-04
2.681111e-04
4.112802e-04
6.310357e-04
8.736756e-04
1.184341e-03
1.442205e-03
1.678036e-03
1.730443e-03
1.678036e-03
1.442204e-03
1.184338e-03
8.736674e-04
6.310108e-04
4.112209e-04
2.679487e-04
1.563375e-04
9.229129e-05
4.661473e-05
2.060715e-05
0.000000e+00
0.000000e+00
-1.366050e-05
-3.064682e-05
-6.047978e-05
-1.011502e-04
-1.720841e-04
-2.597179e-04
-3.940496e-04
-5.347214e-04
-7.152296e-04
-8.541155e-04
-9.856836e-04
-1.008033e-03
-9.856837e-04
-8.541159e-04
-7.152308e-04
-5.347244e-04
-3.940583e-04
-2.597374e-04
-1.721343e-04
-1.012522e-04
-6.070899e-05
-3.106081e-05
-1.444430e-05
-1.173563e-06
1.202521e-05
2.930825e-05
6.129175e-05
1.088121e-04
1.969308e-04
3.186616e-04
5.197121e-04
7.668593e-04
1.117870e-03
1.475156e-03
1.876486e-03
2.133260e-03
2.273691e-03
2.133259e-03
1.876484e-03
1.475152e-03
1.117858e-03
7.668288e-04
5.196237e-04
3.184568e-04
1.963936e-04
1.076486e-04
5.852647e-05
2.372788e-05
0.000000e+00
0.000000e+00
-1.035324e-05
-2.549732e-05
-4.590866e-05
-8.286469e-05
-1.304678e-04
-2.089195e-04
-2.970380e-04
-4.219945e-04
-5.341402e-04
-6.628201e-04
-7.300027e-04
-7.764569e-04
-7.300028e-04
-6.628203e-04
-5.341404e-04
-4.219953e-04
-2.970391e-04
-2.089212e-04
-1.304666e-04
-8.284811e-05
-4.583797e-05
-2.524296e-05
-9.637082e-06
2.014268e-06
1.514112e-05
3.703395e-05
7.024336e-05
1.345412e-04
2.287609e-04
3.948381e-04
6.166197e-04
9.599064e-04
1.360495e-03
1.879560e-03
2.346906e-03
2.770123e-03
2.887154e-03
2.770122e-03
2.346904e-03
1.879555e-03
1.360481e-03
9.598637e-04
6.165170e-04
3.945539e-04
2.281201e-04
1.329335e-04
6.685732e-05
2.932222e-05
0.000000e+00
0.000000e+00
-8.554599e-06
-1.903100e-05
-3.748126e-05
-6.191743e-05
-1.047634e-04
-1.557044e-04
-2.342981e-04
-3.124703e-04
-4.142273e-04
-4.868991e-04
-5.595750e-04
-5.681079e-04
-5.595750e-04
-4.868990e-04
-4.142268e-04
-3.124688e-04
-2.342927e-04
-1.556891e-04
-1.047148e-04
-6.179188e-05
-3.712380e-05
-1.817782e-05
-6.364629e-06
4.833223e-06
1.977197e-05
4.193051e-05
8.564941e-05
1.527898e-04
2.781938e-04
4.570886e-04
7.550196e-04
1.138628e-03
1.692415e-03
2.296894e-03
2.989347e-03
3.483532e-03
3.737253e-03
3.483532e-03
2.989345e-03
2.296888e-03
1.692396e-03
1.138581e-03
7.548828e-04
4.567687e-04
2.773492e-04
1.509407e-04
8.121539e-05
3.286334e-05
0.000000e+00
0.000000e+00
-6.275511e-06
-1.546614e-05
-2.755740e-05
-4.959126e-05
-7.703517e-05
-1.226466e-04
-1.716637e-04
-2.420910e-04
-3.015857e-04
-3.721422e-04
-4.051831e-04
-4.317678e-04
-4.051830e-04
-3.721418e-04
-3.015846e-04
-2.420871e-04
-1.716531e-04
-1.226131e-04
-7.695019e-05
-4.934767e-05
-2.697910e-05
-1.396008e-05
-2.938341e-06