TITLE = u.dat
VARIABLES = X, Y,u.dat
Zone T = psi I = 201J = 201
0.0000000000000000e+00	0.0000000000000000e+00	0.0000000000000000e+00	
0.0000000000000000e+00	5.0000000000000001e-03	0.0000000000000000e+00	
0.0000000000000000e+00	1.0000000000000000e-02	0.0000000000000000e+00	
0.0000000000000000e+00	1.4999999999999999e-02	0.0000000000000000e+00	
0.0000000000000000e+00	2.0000000000000000e-02	0.0000000000000000e+00	
0.0000000000000000e+00	2.5000000000000001e-02	0.0000000000000000e+00	
0.0000000000000000e+00	2.9999999999999999e-02	0.0000000000000000e+00	
0.0000000000000000e+00	3.5000000000000003e-02	0.0000000000000000e+00	
0.0000000000000000e+00	4.0000000000000001e-02	0.0000000000000000e+00	
0.0000000000000000e+00	4.4999999999999998e-02	0.0000000000000000e+00	
0.0000000000000000e+00	5.0000000000000003e-02	0.0000000000000000e+00	
0.0000000000000000e+00	5.5000000000000000e-02	0.0000000000000000e+00	
0.0000000000000000e+00	5.9999999999999998e-02	0.0000000000000000e+00	
0.0000000000000000e+00	6.5000000000000002e-02	0.0000000000000000e+00	
0.0000000000000000e+00	7.0000000000000007e-02	0.0000000000000000e+00	
0.0000000000000000e+00	7.4999999999999997e-02	0.0000000000000000e+00	
0.0000000000000000e+00	8.0000000000000002e-02	0.0000000000000000e+00	
0.0000000000000000e+00	8.5000000000000006e-02	0.0000000000000000e+00	
0.0000000000000000e+00	8.9999999999999997e-02	0.0000000000000000e+00	
0.0000000000000000e+00	9.5000000000000001e-02	0.0000000000000000e+00	
0.0000000000000000e+00	1.0000000000000001e-01	0.0000000000000000e+00	
0.0000000000000000e+00	1.0500000000000000e-01	0.0000000000000000e+00	
0.0000000000000000e+00	1.1000000000000000e-01	0.0000000000000000e+00	
0.0000000000000000e+00	1.1500000000000000e-01	0.0000000000000000e+00	
0.0000000000000000e+00	1.2000000000000000e-01	0.0000000000000000e+00	
0.0000000000000000e+00	1.2500000000000000e-01	0.0000000000000000e+00	
0.0000000000000000e+00	1.3000000000000000e-01	0.0000000000000000e+00	
0.0000000000000000e+00	1.3500000000000001e-01	0.0000000000000000e+00	
0.0000000000000000e+00	1.4000000000000001e-01	0.0000000000000000e+00	
0.0000000000000000e+00	1.4499999999999999e-01	0.0000000000000000e+00	
0.0000000000000000e+00	1.4999999999999999e-01	0.0000000000000000e+00	
0.0000000000000000e+00	1.5500000000000000e-01	0.0000000000000000e+00	
0.0000000000000000e+00	1.6000000000000000e-01	0.0000000000000000e+00	
0.0000000000000000e+00	1.6500000000000001e-01	0.0000000000000000e+00	
0.0000000000000000e+00	1.7000000000000001e-01	0.0000000000000000e+00	
0.0000000000000000e+00	1.7500000000000002e-01	0.0000000000000000e+00	
0.0000000000000000e+00	1.7999999999999999e-01	0.0000000000000000e+00	
0.0000000000000000e+00	1.8500000000000000e-01	0.0000000000000000e+00	
0.0000000000000000e+00	1.9000000000000000e-01	0.0000000000000000e+00	
0.0000000000000000e+00	1.9500000000000001e-01	0.0000000000000000e+00	
0.0000000000000000e+00	2.0000000000000001e-01	0.0000000000000000e+00	
0.0000000000000000e+00	2.0500000000000002e-01	0.0000000000000000e+00	
0.0000000000000000e+00	2.0999999999999999e-01	0.0000000000000000e+00	
0.0000000000000000e+00	2.1500000000000000e-01	0.0000000000000000e+00	
0.0000000000000000e+00	2.2000000000000000e-01	0.0000000000000000e+00	
0.0000000000000000e+00	2.2500000000000001e-01	0.0000000000000000e+00	
0.0000000000000000e+00	2.3000000000000001e-01	0.0000000000000000e+00	
0.0000000000000000e+00	2.3500000000000001e-01	0.0000000000000000e+00	
0.0000000000000000e+00	2.3999999999999999e-01	0.0000000000000000e+00	
0.0000000000000000e+00	2.4500000000000000e-01	0.0000000000000000e+00	
0.0000000000000000e+00	2.5000000000000000e-01	0.0000000000000000e+00	
0.0000000000000000e+00	2.5500000000000000e-01	0.0000000000000000e+00	
0.0000000000000000e+00	2.6000000000000001e-01	0.0000000000000000e+00	
0.0000000000000000e+00	2.6500000000000001e-01	0.0000000000000000e+00	
0.0000000000000000e+00	2.7000000000000002e-01	0.0000000000000000e+00	
0.0000000000000000e+00	2.7500000000000002e-01	0.0000000000000000e+00	
0.0000000000000000e+00	2.8000000000000003e-01	0.0000000000000000e+00	
0.0000000000000000e+00	2.8500000000000003e-01	0.0000000000000000e+00	
0.0000000000000000e+00	2.8999999999999998e-01	0.0000000000000000e+00	
0.0000000000000000e+00	2.9499999999999998e-01	0.0000000000000000e+00	
0.0000000000000000e+00	2.9999999999999999e-01	0.0000000000000000e+00	
0.0000000000000000e+00	3.0499999999999999e-01	0.0000000000000000e+00	
0.0000000000000000e+00	3.1000000000000000e-01	0.0000000000000000e+00	
0.0000000000000000e+00	3.1500000000000000e-01	0.0000000000000000e+00	
0.0000000000000000e+00	3.2000000000000001e-01	0.0000000000000000e+00	
0.0000000000000000e+00	3.2500000000000001e-01	0.0000000000000000e+00	
0.0000000000000000e+00	3.3000000000000002e-01	0.0000000000000000e+00	
0.0000000000000000e+00	3.3500000000000002e-01	0.0000000000000000e+00	
0.0000000000000000e+00	3.4000000000000002e-01	0.0000000000000000e+00	
0.0000000000000000e+00	3.4500000000000003e-01	0.0000000000000000e+00	
0.0000000000000000e+00	3.5000000000000003e-01	0.0000000000000000e+00	
0.0000000000000000e+00	3.5499999999999998e-01	0.0000000000000000e+00	
0.0000000000000000e+00	3.5999999999999999e-01	0.0000000000000000e+00	
0.0000000000000000e+00	3.6499999999999999e-01	0.0000000000000000e+00	
0.0000000000000000e+00	3.7000000000000000e-01	0.0000000000000000e+00	
0.0000000000000000e+00	3.7500000000000000e-01	0.0000000000000000e+00	
0.0000000000000000e+00	3.8000000000000000e-01	0.0000000000000000e+00	
0.0000000000000000e+00	3.8500000000000001e-01	0.0000000000000000e+00	
0.0000000000000000e+00	3.9000000000000001e-01	0.0000000000000000e+00	
0.0000000000000000e+00	3.9500000000000002e-01	0.0000000000000000e+00	
0.0000000000000000e+00	4.0000000000000002e-01	0.0000000000000000e+00	
0.0000000000000000e+00	4.0500000000000003e-01	0.0000000000000000e+00	
0.0000000000000000e+00	4.1000000000000003e-01	0.0000000000000000e+00	
0.0000000000000000e+00	4.1500000000000004e-01	0.0000000000000000e+00	
0.0000000000000000e+00	4.1999999999999998e-01	0.0000000000000000e+00	
0.0000000000000000e+00	4.2499999999999999e-01	0.0000000000000000e+00	
0.0000000000000000e+00	4.2999999999999999e-01	0.0000000000000000e+00	
0.0000000000000000e+00	4.3500000000000000e-01	0.0000000000000000e+00	
0.0000000000000000e+00	4.4000000000000000e-01	0.0000000000000000e+00	
0.0000000000000000e+00	4.4500000000000001e-01	0.0000000000000000e+00	
0.0000000000000000e+00	4.5000000000000001e-01	0.0000000000000000e+00	
0.0000000000000000e+00	4.5500000000000002e-01	0.0000000000000000e+00	
0.0000000000000000e+00	4.6000000000000002e-01	0.0000000000000000e+00	
0.0000000000000000e+00	4.6500000000000002e-01	0.0000000000000000e+00	
0.0000000000000000e+00	4.7000000000000003e-01	0.0000000000000000e+00	
0.0000000000000000e+00	4.7500000000000003e-01	0.0000000000000000e+00	
0.0000000000000000e+00	4.7999999999999998e-01	0.0000000000000000e+00	
0.0000000000000000e+00	4.8499999999999999e-01	0.0000000000000000e+00	
0.0000000000000000e+00	4.8999999999999999e-01	0.0000000000000000e+00	
0.0000000000000000e+00	4.9500000000000000e-01	0.0000000000000000e+00	
0.0000000000000000e+00	5.0000000000000000e-01	0.0000000000000000e+00	
0.0000000000000000e+00	5.0500000000000000e-01	0.0000000000000000e+00	
0.0000000000000000e+00	5.1000000000000001e-01	0.0000000000000000e+00	
0.0000000000000000e+00	5.1500000000000001e-01	0.0000000000000000e+00	
0.0000000000000000e+00	5.2000000000000002e-01	0.0000000000000000e+00	
0.0000000000000000e+00	5.2500000000000002e-01	0.0000000000000000e+00	
0.0000000000000000e+00	5.3000000000000003e-01	0.0000000000000000e+00	
0.0000000000000000e+00	5.3500000000000003e-01	0.0000000000000000e+00	
0.0000000000000000e+00	5.4000000000000004e-01	0.0000000000000000e+00	
0.0000000000000000e+00	5.4500000000000004e-01	0.0000000000000000e+00	
0.0000000000000000e+00	5.5000000000000004e-01	0.0000000000000000e+00	
0.0000000000000000e+00	5.5500000000000005e-01	0.0000000000000000e+00	
0.0000000000000000e+00	5.6000000000000005e-01	0.0000000000000000e+00	
0.0000000000000000e+00	5.6500000000000006e-01	0.0000000000000000e+00	
0.0000000000000000e+00	5.7000000000000006e-01	0.0000000000000000e+00	
0.0000000000000000e+00	5.7500000000000007e-01	0.0000000000000000e+00	
0.0000000000000000e+00	5.7999999999999996e-01	0.0000000000000000e+00	
0.0000000000000000e+00	5.8499999999999996e-01	0.0000000000000000e+00	
0.0000000000000000e+00	5.8999999999999997e-01	0.0000000000000000e+00	
0.0000000000000000e+00	5.9499999999999997e-01	0.0000000000000000e+00	
0.0000000000000000e+00	5.9999999999999998e-01	0.0000000000000000e+00	
0.0000000000000000e+00	6.0499999999999998e-01	0.0000000000000000e+00	
0.0000000000000000e+00	6.0999999999999999e-01	0.0000000000000000e+00	
0.0000000000000000e+00	6.1499999999999999e-01	0.0000000000000000e+00	
0.0000000000000000e+00	6.2000000000000000e-01	0.0000000000000000e+00	
0.0000000000000000e+00	6.2500000000000000e-01	0.0000000000000000e+00	
0.0000000000000000e+00	6.3000000000000000e-01	0.0000000000000000e+00	
0.0000000000000000e+00	6.3500000000000001e-01	0.0000000000000000e+00	
0.0000000000000000e+00	6.4000000000000001e-01	0.0000000000000000e+00	
0.0000000000000000e+00	6.4500000000000002e-01	0.0000000000000000e+00	
0.0000000000000000e+00	6.5000000000000002e-01	0.0000000000000000e+00	
0.0000000000000000e+00	6.5500000000000003e-01	0.0000000000000000e+00	
0.0000000000000000e+00	6.6000000000000003e-01	0.0000000000000000e+00	
0.0000000000000000e+00	6.6500000000000004e-01	0.0000000000000000e+00	
0.0000000000000000e+00	6.7000000000000004e-01	0.0000000000000000e+00	
0.0000000000000000e+00	6.7500000000000004e-01	0.0000000000000000e+00	
0.0000000000000000e+00	6.8000000000000005e-01	0.0000000000000000e+00	
0.0000000000000000e+00	6.8500000000000005e-01	0.0000000000000000e+00	
0.0000000000000000e+00	6.9000000000000006e-01	0.0000000000000000e+00	
0.0000000000000000e+00	6.9500000000000006e-01	0.0000000000000000e+00	
0.0000000000000000e+00	7.0000000000000007e-01	0.0000000000000000e+00	
0.0000000000000000e+00	7.0499999999999996e-01	0.0000000000000000e+00	
0.0000000000000000e+00	7.0999999999999996e-01	0.0000000000000000e+00	
0.0000000000000000e+00	7.1499999999999997e-01	0.0000000000000000e+00	
0.0000000000000000e+00	7.1999999999999997e-01	0.0000000000000000e+00	
0.0000000000000000e+00	7.2499999999999998e-01	0.0000000000000000e+00	
0.0000000000000000e+00	7.2999999999999998e-01	0.0000000000000000e+00	
0.0000000000000000e+00	7.3499999999999999e-01	0.0000000000000000e+00	
0.0000000000000000e+00	7.3999999999999999e-01	0.0000000000000000e+00	
0.0000000000000000e+00	7.4500000000000000e-01	0.0000000000000000e+00	
0.0000000000000000e+00	7.5000000000000000e-01	0.0000000000000000e+00	
0.0000000000000000e+00	7.5500000000000000e-01	0.0000000000000000e+00	
0.0000000000000000e+00	7.6000000000000001e-01	0.0000000000000000e+00	
0.0000000000000000e+00	7.6500000000000001e-01	0.0000000000000000e+00	
0.0000000000000000e+00	7.7000000000000002e-01	0.0000000000000000e+00	
0.0000000000000000e+00	7.7500000000000002e-01	0.0000000000000000e+00	
0.0000000000000000e+00	7.8000000000000003e-01	0.0000000000000000e+00	
0.0000000000000000e+00	7.8500000000000003e-01	0.0000000000000000e+00	
0.0000000000000000e+00	7.9000000000000004e-01	0.0000000000000000e+00	
0.0000000000000000e+00	7.9500000000000004e-01	0.0000000000000000e+00	
0.0000000000000000e+00	8.0000000000000004e-01	0.0000000000000000e+00	
0.0000000000000000e+00	8.0500000000000005e-01	0.0000000000000000e+00	
0.0000000000000000e+00	8.1000000000000005e-01	0.0000000000000000e+00	
0.0000000000000000e+00	8.1500000000000006e-01	0.0000000000000000e+00	
0.0000000000000000e+00	8.2000000000000006e-01	0.0000000000000000e+00	
0.0000000000000000e+00	8.2500000000000007e-01	0.0000000000000000e+00	
0.0000000000000000e+00	8.3000000000000007e-01	0.0000000000000000e+00	
0.0000000000000000e+00	8.3499999999999996e-01	0.0000000000000000e+00	
0.0000000000000000e+00	8.3999999999999997e-01	0.0000000000000000e+00	
0.0000000000000000e+00	8.4499999999999997e-01	0.0000000000000000e+00	
0.0000000000000000e+00	8.4999999999999998e-01	0.0000000000000000e+00	
0.0000000000000000e+00	8.5499999999999998e-01	0.0000000000000000e+00	
0.0000000000000000e+00	8.5999999999999999e-01	0.0000000000000000e+00	
0.0000000000000000e+00	8.6499999999999999e-01	0.0000000000000000e+00	
0.0000000000000000e+00	8.7000000000000000e-01	0.0000000000000000e+00	
0.0000000000000000e+00	8.7500000000000000e-01	0.0000000000000000e+00	
0.0000000000000000e+00	8.8000000000000000e-01	0.0000000000000000e+00	
0.0000000000000000e+00	8.8500000000000001e-01	0.0000000000000000e+00	
0.0000000000000000e+00	8.9000000000000001e-01	0.0000000000000000e+00	
0.0000000000000000e+00	8.9500000000000002e-01	0.0000000000000000e+00	
0.0000000000000000e+00	9.0000000000000002e-01	0.0000000000000000e+00	
0.0000000000000000e+00	9.0500000000000003e-01	0.0000000000000000e+00	
0.0000000000000000e+00	9.1000000000000003e-01	0.0000000000000000e+00	
0.0000000000000000e+00	9.1500000000000004e-01	0.0000000000000000e+00	
0.0000000000000000e+00	9.2000000000000004e-01	0.0000000000000000e+00	
0.0000000000000000e+00	9.2500000000000004e-01	0.0000000000000000e+00	
0.0000000000000000e+00	9.3000000000000005e-01	0.0000000000000000e+00	
0.0000000000000000e+00	9.3500000000000005e-01	0.0000000000000000e+00	
0.0000000000000000e+00	9.4000000000000006e-01	0.0000000000000000e+00	
0.0000000000000000e+00	9.4500000000000006e-01	0.0000000000000000e+00	
0.0000000000000000e+00	9.5000000000000007e-01	0.0000000000000000e+00	
0.0000000000000000e+00	9.5500000000000007e-01	0.0000000000000000e+00	
0.0000000000000000e+00	9.5999999999999996e-01	0.0000000000000000e+00	
0.0000000000000000e+00	9.6499999999999997e-01	0.0000000000000000e+00	
0.0000000000000000e+00	9.6999999999999997e-01	0.0000000000000000e+00	
0.0000000000000000e+00	9.7499999999999998e-01	0.0000000000000000e+00	
0.0000000000000000e+00	9.7999999999999998e-01	0.0000000000000000e+00	
0.0000000000000000e+00	9.8499999999999999e-01	0.0000000000000000e+00	
0.0000000000000000e+00	9.8999999999999999e-01	0.0000000000000000e+00	
0.0000000000000000e+00	9.9500000000000000e-01	0.0000000000000000e+00	
0.0000000000000000e+00	1.0000000000000000e+00	0.0000000000000000e+00	
5.0000000000000001e-03	0.0000000000000000e+00	0.0000000000000000e+00	
5.0000000000000001e-03	5.0000000000000001e-03	2.4574067484576512e-02	
5.0000000000000001e-03	1.0000000000000000e-02	4.8543039871028607e-02	
5.0000000000000001e-03	1.4999999999999999e-02	7.1316721510743225e-02	
5.0000000000000001e-03	2.0000000000000000e-02	9.2334348780234429e-02	
5.0000000000000001e-03	2.5000000000000001e-02	1.1107839794262159e-01	
5.0000000000000001e-03	2.9999999999999999e-02	1.2708732829959424e-01	
5.0000000000000001e-03	3.5000000000000003e-02	1.3996694685516978e-01	
5.0000000000000001e-03	4.0000000000000001e-02	1.4940011465550676e-01	
5.0000000000000001e-03	4.4999999999999998e-02	1.5515455580247173e-01	
5.0000000000000001e-03	5.0000000000000003e-02	1.5708857685713129e-01	
5.0000000000000001e-03	5.5000000000000000e-02	1.5515455580247170e-01	
5.0000000000000001e-03	5.9999999999999998e-02	1.4940011465550679e-01	
5.0000000000000001e-03	6.5000000000000002e-02	1.3996694685516983e-01	
5.0000000000000001e-03	7.0000000000000007e-02	1.2708732829959435e-01	
5.0000000000000001e-03	7.4999999999999997e-02	1.1107839794262182e-01	
5.0000000000000001e-03	8.0000000000000002e-02	9.2334348780234665e-02	
5.0000000000000001e-03	8.5000000000000006e-02	7.1316721510743392e-02	
5.0000000000000001e-03	8.9999999999999997e-02	4.8543039871028856e-02	
5.0000000000000001e-03	9.5000000000000001e-02	2.4574067484576776e-02	
5.0000000000000001e-03	1.0000000000000001e-01	2.7525449952033916e-16	
5.0000000000000001e-03	1.0500000000000000e-01	-2.4574067484576301e-02	
5.0000000000000001e-03	1.1000000000000000e-01	-4.8543039871028260e-02	
5.0000000000000001e-03	1.1500000000000000e-01	-7.1316721510742836e-02	
5.0000000000000001e-03	1.2000000000000000e-01	-9.2334348780234055e-02	
5.0000000000000001e-03	1.2500000000000000e-01	-1.1107839794262125e-01	
5.0000000000000001e-03	1.3000000000000000e-01	-1.2708732829959390e-01	
5.0000000000000001e-03	1.3500000000000001e-01	-1.3996694685516933e-01	
5.0000000000000001e-03	1.4000000000000001e-01	-1.4940011465550629e-01	
5.0000000000000001e-03	1.4499999999999999e-01	-1.5515455580247120e-01	
5.0000000000000001e-03	1.4999999999999999e-01	-1.5708857685713076e-01	
5.0000000000000001e-03	1.5500000000000000e-01	-1.5515455580247123e-01	
5.0000000000000001e-03	1.6000000000000000e-01	-1.4940011465550623e-01	
5.0000000000000001e-03	1.6500000000000001e-01	-1.3996694685516925e-01	
5.0000000000000001e-03	1.7000000000000001e-01	-1.2708732829959365e-01	
5.0000000000000001e-03	1.7500000000000002e-01	-1.1107839794262123e-01	
5.0000000000000001e-03	1.7999999999999999e-01	-9.2334348780234027e-02	
5.0000000000000001e-03	1.8500000000000000e-01	-7.1316721510742698e-02	
5.0000000000000001e-03	1.9000000000000000e-01	-4.8543039871028211e-02	
5.0000000000000001e-03	1.9500000000000001e-01	-2.4574067484576110e-02	
5.0000000000000001e-03	2.0000000000000001e-01	3.6527969665359391e-16	
5.0000000000000001e-03	2.0500000000000002e-01	2.4574067484576880e-02	
5.0000000000000001e-03	2.0999999999999999e-01	4.8543039871029106e-02	
5.0000000000000001e-03	2.1500000000000000e-01	7.1316721510743503e-02	
5.0000000000000001e-03	2.2000000000000000e-01	9.2334348780234707e-02	
5.0000000000000001e-03	2.2500000000000001e-01	1.1107839794262199e-01	
5.0000000000000001e-03	2.3000000000000001e-01	1.2708732829959452e-01	
5.0000000000000001e-03	2.3500000000000001e-01	1.3996694685517008e-01	
5.0000000000000001e-03	2.3999999999999999e-01	1.4940011465550698e-01	
5.0000000000000001e-03	2.4500000000000000e-01	1.5515455580247195e-01	
5.0000000000000001e-03	2.5000000000000000e-01	1.5708857685713151e-01	
5.0000000000000001e-03	2.5500000000000000e-01	1.5515455580247195e-01	
5.0000000000000001e-03	2.6000000000000001e-01	1.4940011465550690e-01	
5.0000000000000001e-03	2.6500000000000001e-01	1.3996694685517000e-01	
5.0000000000000001e-03	2.7000000000000002e-01	1.2708732829959457e-01	
5.0000000000000001e-03	2.7500000000000002e-01	1.1107839794262188e-01	
5.0000000000000001e-03	2.8000000000000003e-01	9.2334348780234804e-02	
5.0000000000000001e-03	2.8500000000000003e-01	7.1316721510743725e-02	
5.0000000000000001e-03	2.8999999999999998e-01	4.8543039871029064e-02	
5.0000000000000001e-03	2.9499999999999998e-01	2.4574067484576866e-02	
5.0000000000000001e-03	2.9999999999999999e-01	5.2116215794062573e-16	
5.0000000000000001e-03	3.0499999999999999e-01	-2.4574067484576075e-02	
5.0000000000000001e-03	3.1000000000000000e-01	-4.8543039871028038e-02	
5.0000000000000001e-03	3.1500000000000000e-01	-7.1316721510742712e-02	
5.0000000000000001e-03	3.2000000000000001e-01	-9.2334348780233805e-02	
5.0000000000000001e-03	3.2500000000000001e-01	-1.1107839794262110e-01	
5.0000000000000001e-03	3.3000000000000002e-01	-1.2708732829959374e-01	
5.0000000000000001e-03	3.3500000000000002e-01	-1.3996694685516919e-01	
5.0000000000000001e-03	3.4000000000000002e-01	-1.4940011465550612e-01	
5.0000000000000001e-03	3.4500000000000003e-01	-1.5515455580247103e-01	
5.0000000000000001e-03	3.5000000000000003e-01	-1.5708857685713057e-01	
5.0000000000000001e-03	3.5499999999999998e-01	-1.5515455580247098e-01	
5.0000000000000001e-03	3.5999999999999999e-01	-1.4940011465550612e-01	
5.0000000000000001e-03	3.6499999999999999e-01	-1.3996694685516908e-01	
5.0000000000000001e-03	3.7000000000000000e-01	-1.2708732829959346e-01	
5.0000000000000001e-03	3.7500000000000000e-01	-1.1107839794262096e-01	
5.0000000000000001e-03	3.8000000000000000e-01	-9.2334348780233819e-02	
5.0000000000000001e-03	3.8500000000000001e-01	-7.1316721510742503e-02	
5.0000000000000001e-03	3.9000000000000001e-01	-4.8543039871028038e-02	
5.0000000000000001e-03	3.9500000000000002e-01	-2.4574067484575815e-02	
5.0000000000000001e-03	4.0000000000000002e-01	5.6641700702085643e-16	
5.0000000000000001e-03	4.0500000000000003e-01	2.4574067484577210e-02	
5.0000000000000001e-03	4.1000000000000003e-01	4.8543039871029141e-02	
5.0000000000000001e-03	4.1500000000000004e-01	7.1316721510744072e-02	
5.0000000000000001e-03	4.1999999999999998e-01	9.2334348780235109e-02	
5.0000000000000001e-03	4.2499999999999999e-01	1.1107839794262224e-01	
5.0000000000000001e-03	4.2999999999999999e-01	1.2708732829959465e-01	
5.0000000000000001e-03	4.3500000000000000e-01	1.3996694685517011e-01	
5.0000000000000001e-03	4.4000000000000000e-01	1.4940011465550707e-01	
5.0000000000000001e-03	4.4500000000000001e-01	1.5515455580247206e-01	
5.0000000000000001e-03	4.5000000000000001e-01	1.5708857685713160e-01	
5.0000000000000001e-03	4.5500000000000002e-01	1.5515455580247201e-01	
5.0000000000000001e-03	4.6000000000000002e-01	1.4940011465550707e-01	
5.0000000000000001e-03	4.6500000000000002e-01	1.3996694685517019e-01	
5.0000000000000001e-03	4.7000000000000003e-01	1.2708732829959435e-01	
5.0000000000000001e-03	4.7500000000000003e-01	1.1107839794262182e-01	
5.0000000000000001e-03	4.7999999999999998e-01	9.2334348780234665e-02	
5.0000000000000001e-03	4.8499999999999999e-01	7.1316721510743322e-02	
5.0000000000000001e-03	4.8999999999999999e-01	4.8543039871028849e-02	
5.0000000000000001e-03	4.9500000000000000e-01	2.4574067484576287e-02	
5.0000000000000001e-03	5.0000000000000000e-01	-1.4042515350012193e-16	
5.0000000000000001e-03	5.0500000000000000e-01	-2.4574067484576505e-02	
5.0000000000000001e-03	5.1000000000000001e-01	-4.8543039871028773e-02	
5.0000000000000001e-03	5.1500000000000001e-01	-7.1316721510742989e-02	
5.0000000000000001e-03	5.2000000000000002e-01	-9.2334348780234790e-02	
5.0000000000000001e-03	5.2500000000000002e-01	-1.1107839794262164e-01	
5.0000000000000001e-03	5.3000000000000003e-01	-1.2708732829959432e-01	
5.0000000000000001e-03	5.3500000000000003e-01	-1.3996694685516964e-01	
5.0000000000000001e-03	5.4000000000000004e-01	-1.4940011465550665e-01	
5.0000000000000001e-03	5.4500000000000004e-01	-1.5515455580247164e-01	
5.0000000000000001e-03	5.5000000000000004e-01	-1.5708857685713118e-01	
5.0000000000000001e-03	5.5500000000000005e-01	-1.5515455580247151e-01	
5.0000000000000001e-03	5.6000000000000005e-01	-1.4940011465550659e-01	
5.0000000000000001e-03	5.6500000000000006e-01	-1.3996694685516961e-01	
5.0000000000000001e-03	5.7000000000000006e-01	-1.2708732829959432e-01	
5.0000000000000001e-03	5.7500000000000007e-01	-1.1107839794262120e-01	
5.0000000000000001e-03	5.7999999999999996e-01	-9.2334348780234277e-02	
5.0000000000000001e-03	5.8499999999999996e-01	-7.1316721510743003e-02	
5.0000000000000001e-03	5.8999999999999997e-01	-4.8543039871028267e-02	
5.0000000000000001e-03	5.9499999999999997e-01	-2.4574067484576603e-02	
5.0000000000000001e-03	5.9999999999999998e-01	8.3420724536669228e-17	
5.0000000000000001e-03	6.0499999999999998e-01	2.4574067484576734e-02	
5.0000000000000001e-03	6.0999999999999999e-01	4.8543039871028988e-02	
5.0000000000000001e-03	6.1499999999999999e-01	7.1316721510743669e-02	
5.0000000000000001e-03	6.2000000000000000e-01	9.2334348780234526e-02	
5.0000000000000001e-03	6.2500000000000000e-01	1.1107839794262191e-01	
5.0000000000000001e-03	6.3000000000000000e-01	1.2708732829959457e-01	
5.0000000000000001e-03	6.3500000000000001e-01	1.3996694685517014e-01	
5.0000000000000001e-03	6.4000000000000001e-01	1.4940011465550690e-01	
5.0000000000000001e-03	6.4500000000000002e-01	1.5515455580247184e-01	
5.0000000000000001e-03	6.5000000000000002e-01	1.5708857685713137e-01	
5.0000000000000001e-03	6.5500000000000003e-01	1.5515455580247178e-01	
5.0000000000000001e-03	6.6000000000000003e-01	1.4940011465550670e-01	
5.0000000000000001e-03	6.6500000000000004e-01	1.3996694685516989e-01	
5.0000000000000001e-03	6.7000000000000004e-01	1.2708732829959424e-01	
5.0000000000000001e-03	6.7500000000000004e-01	1.1107839794262196e-01	
5.0000000000000001e-03	6.8000000000000005e-01	9.2334348780234179e-02	
5.0000000000000001e-03	6.8500000000000005e-01	7.1316721510743322e-02	
5.0000000000000001e-03	6.9000000000000006e-01	4.8543039871028641e-02	
5.0000000000000001e-03	6.9500000000000006e-01	2.4574067484576422e-02	
5.0000000000000001e-03	7.0000000000000007e-01	3.2385957450870431e-16	
5.0000000000000001e-03	7.0499999999999996e-01	-2.4574067484576266e-02	
5.0000000000000001e-03	7.0999999999999996e-01	-4.8543039871028516e-02	
5.0000000000000001e-03	7.1499999999999997e-01	-7.1316721510743183e-02	
5.0000000000000001e-03	7.1999999999999997e-01	-9.2334348780234041e-02	
5.0000000000000001e-03	7.2499999999999998e-01	-1.1107839794262130e-01	
5.0000000000000001e-03	7.2999999999999998e-01	-1.2708732829959396e-01	
5.0000000000000001e-03	7.3499999999999999e-01	-1.3996694685516947e-01	
5.0000000000000001e-03	7.3999999999999999e-01	-1.4940011465550637e-01	
5.0000000000000001e-03	7.4500000000000000e-01	-1.5515455580247123e-01	
5.0000000000000001e-03	7.5000000000000000e-01	-1.5708857685713074e-01	
5.0000000000000001e-03	7.5500000000000000e-01	-1.5515455580247117e-01	
5.0000000000000001e-03	7.6000000000000001e-01	-1.4940011465550615e-01	
5.0000000000000001e-03	7.6500000000000001e-01	-1.3996694685516917e-01	
5.0000000000000001e-03	7.7000000000000002e-01	-1.2708732829959352e-01	
5.0000000000000001e-03	7.7500000000000002e-01	-1.1107839794262074e-01	
5.0000000000000001e-03	7.8000000000000003e-01	-9.2334348780233805e-02	
5.0000000000000001e-03	7.8500000000000003e-01	-7.1316721510742476e-02	
5.0000000000000001e-03	7.9000000000000004e-01	-4.8543039871027753e-02	
5.0000000000000001e-03	7.9500000000000004e-01	-2.4574067484575503e-02	
5.0000000000000001e-03	8.0000000000000004e-01	6.2458906051265066e-16	
5.0000000000000001e-03	8.0500000000000005e-01	2.4574067484577269e-02	
5.0000000000000001e-03	8.1000000000000005e-01	4.8543039871029488e-02	
5.0000000000000001e-03	8.1500000000000006e-01	7.1316721510743697e-02	
5.0000000000000001e-03	8.2000000000000006e-01	9.2334348780235054e-02	
5.0000000000000001e-03	8.2500000000000007e-01	1.1107839794262189e-01	
5.0000000000000001e-03	8.3000000000000007e-01	1.2708732829959529e-01	
5.0000000000000001e-03	8.3499999999999996e-01	1.3996694685517058e-01	
5.0000000000000001e-03	8.3999999999999997e-01	1.4940011465550748e-01	
5.0000000000000001e-03	8.4499999999999997e-01	1.5515455580247228e-01	
5.0000000000000001e-03	8.4999999999999998e-01	1.5708857685713182e-01	
5.0000000000000001e-03	8.5499999999999998e-01	1.5515455580247217e-01	
5.0000000000000001e-03	8.5999999999999999e-01	1.4940011465550726e-01	
5.0000000000000001e-03	8.6499999999999999e-01	1.3996694685517025e-01	
5.0000000000000001e-03	8.7000000000000000e-01	1.2708732829959490e-01	
5.0000000000000001e-03	8.7500000000000000e-01	1.1107839794262223e-01	
5.0000000000000001e-03	8.8000000000000000e-01	9.2334348780234873e-02	
5.0000000000000001e-03	8.8500000000000001e-01	7.1316721510743017e-02	
5.0000000000000001e-03	8.9000000000000001e-01	4.8543039871028704e-02	
5.0000000000000001e-03	8.9500000000000002e-01	2.4574067484576443e-02	
5.0000000000000001e-03	9.0000000000000002e-01	-2.5931407466786769e-16	
5.0000000000000001e-03	9.0500000000000003e-01	-2.4574067484576394e-02	
5.0000000000000001e-03	9.1000000000000003e-01	-4.8543039871028704e-02	
5.0000000000000001e-03	9.1500000000000004e-01	-7.1316721510742934e-02	
5.0000000000000001e-03	9.2000000000000004e-01	-9.2334348780234304e-02	
5.0000000000000001e-03	9.2500000000000004e-01	-1.1107839794262166e-01	
5.0000000000000001e-03	9.3000000000000005e-01	-1.2708732829959404e-01	
5.0000000000000001e-03	9.3500000000000005e-01	-1.3996694685517003e-01	
5.0000000000000001e-03	9.4000000000000006e-01	-1.4940011465550693e-01	
5.0000000000000001e-03	9.4500000000000006e-01	-1.5515455580247187e-01	
5.0000000000000001e-03	9.5000000000000007e-01	-1.5708857685713137e-01	
5.0000000000000001e-03	9.5500000000000007e-01	-1.5515455580247178e-01	
5.0000000000000001e-03	9.5999999999999996e-01	-1.4940011465550693e-01	
5.0000000000000001e-03	9.6499999999999997e-01	-1.3996694685516994e-01	
5.0000000000000001e-03	9.6999999999999997e-01	-1.2708732829959432e-01	
5.0000000000000001e-03	9.7499999999999998e-01	-1.1107839794262207e-01	
5.0000000000000001e-03	9.7999999999999998e-01	-9.2334348780234707e-02	
5.0000000000000001e-03	9.8499999999999999e-01	-7.1316721510743850e-02	
5.0000000000000001e-03	9.8999999999999999e-01	-4.8543039871028058e-02	
5.0000000000000001e-03	9.9500000000000000e-01	-2.4574067484576329e-02	
5.0000000000000001e-03	1.0000000000000000e+00	0.0000000000000000e+00	
1.0000000000000000e-02	0.0000000000000000e+00	0.0000000000000000e+00	
1.0000000000000000e-02	5.0000000000000001e-03	4.8543039871028600e-02	
1.0000000000000000e-02	1.0000000000000000e-02	9.5890788995319692e-02	
1.0000000000000000e-02	1.4999999999999999e-02	1.4087738865126304e-01	
1.0000000000000000e-02	2.0000000000000000e-02	1.8239511945336478e-01	
1.0000000000000000e-02	2.5000000000000001e-02	2.1942167707982849e-01	
1.0000000000000000e-02	2.9999999999999999e-02	2.5104534479779139e-01	
1.0000000000000000e-02	3.5000000000000003e-02	2.7648744295510086e-01	
1.0000000000000000e-02	4.0000000000000001e-02	2.9512150265764148e-01	
1.0000000000000000e-02	4.4999999999999998e-02	3.0648869151263797e-01	
1.0000000000000000e-02	5.0000000000000003e-02	3.1030911160494346e-01	
1.0000000000000000e-02	5.5000000000000000e-02	3.0648869151263791e-01	
1.0000000000000000e-02	5.9999999999999998e-02	2.9512150265764153e-01	
1.0000000000000000e-02	6.5000000000000002e-02	2.7648744295510097e-01	
1.0000000000000000e-02	7.0000000000000007e-02	2.5104534479779161e-01	
1.0000000000000000e-02	7.4999999999999997e-02	2.1942167707982896e-01	
1.0000000000000000e-02	8.0000000000000002e-02	1.8239511945336523e-01	
1.0000000000000000e-02	8.5000000000000006e-02	1.4087738865126334e-01	
1.0000000000000000e-02	8.9999999999999997e-02	9.5890788995320192e-02	
1.0000000000000000e-02	9.5000000000000001e-02	4.8543039871029141e-02	
1.0000000000000000e-02	1.0000000000000001e-01	5.4395373628043496e-16	
1.0000000000000000e-02	1.0500000000000000e-01	-4.8543039871028183e-02	
1.0000000000000000e-02	1.1000000000000000e-01	-9.5890788995319026e-02	
1.0000000000000000e-02	1.1500000000000000e-01	-1.4087738865126226e-01	