TITLE = utilde.dat
VARIABLES = X, Y,utilde.dat
Zone T = psi I = 201J = 201
0.0000000000000000e+00	0.0000000000000000e+00	0.0000000000000000e+00	
0.0000000000000000e+00	5.0000000000000001e-03	0.0000000000000000e+00	
0.0000000000000000e+00	1.0000000000000000e-02	0.0000000000000000e+00	
0.0000000000000000e+00	1.4999999999999999e-02	0.0000000000000000e+00	
0.0000000000000000e+00	2.0000000000000000e-02	0.0000000000000000e+00	
0.0000000000000000e+00	2.5000000000000001e-02	0.0000000000000000e+00	
0.0000000000000000e+00	2.9999999999999999e-02	0.0000000000000000e+00	
0.0000000000000000e+00	3.5000000000000003e-02	0.0000000000000000e+00	
0.0000000000000000e+00	4.0000000000000001e-02	0.0000000000000000e+00	
0.0000000000000000e+00	4.4999999999999998e-02	0.0000000000000000e+00	
0.0000000000000000e+00	5.0000000000000003e-02	0.0000000000000000e+00	
0.0000000000000000e+00	5.5000000000000000e-02	0.0000000000000000e+00	
0.0000000000000000e+00	5.9999999999999998e-02	0.0000000000000000e+00	
0.0000000000000000e+00	6.5000000000000002e-02	0.0000000000000000e+00	
0.0000000000000000e+00	7.0000000000000007e-02	0.0000000000000000e+00	
0.0000000000000000e+00	7.4999999999999997e-02	0.0000000000000000e+00	
0.0000000000000000e+00	8.0000000000000002e-02	0.0000000000000000e+00	
0.0000000000000000e+00	8.5000000000000006e-02	0.0000000000000000e+00	
0.0000000000000000e+00	8.9999999999999997e-02	0.0000000000000000e+00	
0.0000000000000000e+00	9.5000000000000001e-02	0.0000000000000000e+00	
0.0000000000000000e+00	1.0000000000000001e-01	0.0000000000000000e+00	
0.0000000000000000e+00	1.0500000000000000e-01	0.0000000000000000e+00	
0.0000000000000000e+00	1.1000000000000000e-01	0.0000000000000000e+00	
0.0000000000000000e+00	1.1500000000000000e-01	0.0000000000000000e+00	
0.0000000000000000e+00	1.2000000000000000e-01	0.0000000000000000e+00	
0.0000000000000000e+00	1.2500000000000000e-01	0.0000000000000000e+00	
0.0000000000000000e+00	1.3000000000000000e-01	0.0000000000000000e+00	
0.0000000000000000e+00	1.3500000000000001e-01	0.0000000000000000e+00	
0.0000000000000000e+00	1.4000000000000001e-01	0.0000000000000000e+00	
0.0000000000000000e+00	1.4499999999999999e-01	0.0000000000000000e+00	
0.0000000000000000e+00	1.4999999999999999e-01	0.0000000000000000e+00	
0.0000000000000000e+00	1.5500000000000000e-01	0.0000000000000000e+00	
0.0000000000000000e+00	1.6000000000000000e-01	0.0000000000000000e+00	
0.0000000000000000e+00	1.6500000000000001e-01	0.0000000000000000e+00	
0.0000000000000000e+00	1.7000000000000001e-01	0.0000000000000000e+00	
0.0000000000000000e+00	1.7500000000000002e-01	0.0000000000000000e+00	
0.0000000000000000e+00	1.7999999999999999e-01	0.0000000000000000e+00	
0.0000000000000000e+00	1.8500000000000000e-01	0.0000000000000000e+00	
0.0000000000000000e+00	1.9000000000000000e-01	0.0000000000000000e+00	
0.0000000000000000e+00	1.9500000000000001e-01	0.0000000000000000e+00	
0.0000000000000000e+00	2.0000000000000001e-01	0.0000000000000000e+00	
0.0000000000000000e+00	2.0500000000000002e-01	0.0000000000000000e+00	
0.0000000000000000e+00	2.0999999999999999e-01	0.0000000000000000e+00	
0.0000000000000000e+00	2.1500000000000000e-01	0.0000000000000000e+00	
0.0000000000000000e+00	2.2000000000000000e-01	0.0000000000000000e+00	
0.0000000000000000e+00	2.2500000000000001e-01	0.0000000000000000e+00	
0.0000000000000000e+00	2.3000000000000001e-01	0.0000000000000000e+00	
0.0000000000000000e+00	2.3500000000000001e-01	0.0000000000000000e+00	
0.0000000000000000e+00	2.3999999999999999e-01	0.0000000000000000e+00	
0.0000000000000000e+00	2.4500000000000000e-01	0.0000000000000000e+00	
0.0000000000000000e+00	2.5000000000000000e-01	0.0000000000000000e+00	
0.0000000000000000e+00	2.5500000000000000e-01	0.0000000000000000e+00	
0.0000000000000000e+00	2.6000000000000001e-01	0.0000000000000000e+00	
0.0000000000000000e+00	2.6500000000000001e-01	0.0000000000000000e+00	
0.0000000000000000e+00	2.7000000000000002e-01	0.0000000000000000e+00	
0.0000000000000000e+00	2.7500000000000002e-01	0.0000000000000000e+00	
0.0000000000000000e+00	2.8000000000000003e-01	0.0000000000000000e+00	
0.0000000000000000e+00	2.8500000000000003e-01	0.0000000000000000e+00	
0.0000000000000000e+00	2.8999999999999998e-01	0.0000000000000000e+00	
0.0000000000000000e+00	2.9499999999999998e-01	0.0000000000000000e+00	
0.0000000000000000e+00	2.9999999999999999e-01	0.0000000000000000e+00	
0.0000000000000000e+00	3.0499999999999999e-01	0.0000000000000000e+00	
0.0000000000000000e+00	3.1000000000000000e-01	0.0000000000000000e+00	
0.0000000000000000e+00	3.1500000000000000e-01	0.0000000000000000e+00	
0.0000000000000000e+00	3.2000000000000001e-01	0.0000000000000000e+00	
0.0000000000000000e+00	3.2500000000000001e-01	0.0000000000000000e+00	
0.0000000000000000e+00	3.3000000000000002e-01	0.0000000000000000e+00	
0.0000000000000000e+00	3.3500000000000002e-01	0.0000000000000000e+00	
0.0000000000000000e+00	3.4000000000000002e-01	0.0000000000000000e+00	
0.0000000000000000e+00	3.4500000000000003e-01	0.0000000000000000e+00	
0.0000000000000000e+00	3.5000000000000003e-01	0.0000000000000000e+00	
0.0000000000000000e+00	3.5499999999999998e-01	0.0000000000000000e+00	
0.0000000000000000e+00	3.5999999999999999e-01	0.0000000000000000e+00	
0.0000000000000000e+00	3.6499999999999999e-01	0.0000000000000000e+00	
0.0000000000000000e+00	3.7000000000000000e-01	0.0000000000000000e+00	
0.0000000000000000e+00	3.7500000000000000e-01	0.0000000000000000e+00	
0.0000000000000000e+00	3.8000000000000000e-01	0.0000000000000000e+00	
0.0000000000000000e+00	3.8500000000000001e-01	0.0000000000000000e+00	
0.0000000000000000e+00	3.9000000000000001e-01	0.0000000000000000e+00	
0.0000000000000000e+00	3.9500000000000002e-01	0.0000000000000000e+00	
0.0000000000000000e+00	4.0000000000000002e-01	0.0000000000000000e+00	
0.0000000000000000e+00	4.0500000000000003e-01	0.0000000000000000e+00	
0.0000000000000000e+00	4.1000000000000003e-01	0.0000000000000000e+00	
0.0000000000000000e+00	4.1500000000000004e-01	0.0000000000000000e+00	
0.0000000000000000e+00	4.1999999999999998e-01	0.0000000000000000e+00	
0.0000000000000000e+00	4.2499999999999999e-01	0.0000000000000000e+00	
0.0000000000000000e+00	4.2999999999999999e-01	0.0000000000000000e+00	
0.0000000000000000e+00	4.3500000000000000e-01	0.0000000000000000e+00	
0.0000000000000000e+00	4.4000000000000000e-01	0.0000000000000000e+00	
0.0000000000000000e+00	4.4500000000000001e-01	0.0000000000000000e+00	
0.0000000000000000e+00	4.5000000000000001e-01	0.0000000000000000e+00	
0.0000000000000000e+00	4.5500000000000002e-01	0.0000000000000000e+00	
0.0000000000000000e+00	4.6000000000000002e-01	0.0000000000000000e+00	
0.0000000000000000e+00	4.6500000000000002e-01	0.0000000000000000e+00	
0.0000000000000000e+00	4.7000000000000003e-01	0.0000000000000000e+00	
0.0000000000000000e+00	4.7500000000000003e-01	0.0000000000000000e+00	
0.0000000000000000e+00	4.7999999999999998e-01	0.0000000000000000e+00	
0.0000000000000000e+00	4.8499999999999999e-01	0.0000000000000000e+00	
0.0000000000000000e+00	4.8999999999999999e-01	0.0000000000000000e+00	
0.0000000000000000e+00	4.9500000000000000e-01	0.0000000000000000e+00	
0.0000000000000000e+00	5.0000000000000000e-01	0.0000000000000000e+00	
0.0000000000000000e+00	5.0500000000000000e-01	0.0000000000000000e+00	
0.0000000000000000e+00	5.1000000000000001e-01	0.0000000000000000e+00	
0.0000000000000000e+00	5.1500000000000001e-01	0.0000000000000000e+00	
0.0000000000000000e+00	5.2000000000000002e-01	0.0000000000000000e+00	
0.0000000000000000e+00	5.2500000000000002e-01	0.0000000000000000e+00	
0.0000000000000000e+00	5.3000000000000003e-01	0.0000000000000000e+00	
0.0000000000000000e+00	5.3500000000000003e-01	0.0000000000000000e+00	
0.0000000000000000e+00	5.4000000000000004e-01	0.0000000000000000e+00	
0.0000000000000000e+00	5.4500000000000004e-01	0.0000000000000000e+00	
0.0000000000000000e+00	5.5000000000000004e-01	0.0000000000000000e+00	
0.0000000000000000e+00	5.5500000000000005e-01	0.0000000000000000e+00	
0.0000000000000000e+00	5.6000000000000005e-01	0.0000000000000000e+00	
0.0000000000000000e+00	5.6500000000000006e-01	0.0000000000000000e+00	
0.0000000000000000e+00	5.7000000000000006e-01	0.0000000000000000e+00	
0.0000000000000000e+00	5.7500000000000007e-01	0.0000000000000000e+00	
0.0000000000000000e+00	5.7999999999999996e-01	0.0000000000000000e+00	
0.0000000000000000e+00	5.8499999999999996e-01	0.0000000000000000e+00	
0.0000000000000000e+00	5.8999999999999997e-01	0.0000000000000000e+00	
0.0000000000000000e+00	5.9499999999999997e-01	0.0000000000000000e+00	
0.0000000000000000e+00	5.9999999999999998e-01	0.0000000000000000e+00	
0.0000000000000000e+00	6.0499999999999998e-01	0.0000000000000000e+00	
0.0000000000000000e+00	6.0999999999999999e-01	0.0000000000000000e+00	
0.0000000000000000e+00	6.1499999999999999e-01	0.0000000000000000e+00	
0.0000000000000000e+00	6.2000000000000000e-01	0.0000000000000000e+00	
0.0000000000000000e+00	6.2500000000000000e-01	0.0000000000000000e+00	
0.0000000000000000e+00	6.3000000000000000e-01	0.0000000000000000e+00	
0.0000000000000000e+00	6.3500000000000001e-01	0.0000000000000000e+00	
0.0000000000000000e+00	6.4000000000000001e-01	0.0000000000000000e+00	
0.0000000000000000e+00	6.4500000000000002e-01	0.0000000000000000e+00	
0.0000000000000000e+00	6.5000000000000002e-01	0.0000000000000000e+00	
0.0000000000000000e+00	6.5500000000000003e-01	0.0000000000000000e+00	
0.0000000000000000e+00	6.6000000000000003e-01	0.0000000000000000e+00	
0.0000000000000000e+00	6.6500000000000004e-01	0.0000000000000000e+00	
0.0000000000000000e+00	6.7000000000000004e-01	0.0000000000000000e+00	
0.0000000000000000e+00	6.7500000000000004e-01	0.0000000000000000e+00	
0.0000000000000000e+00	6.8000000000000005e-01	0.0000000000000000e+00	
0.0000000000000000e+00	6.8500000000000005e-01	0.0000000000000000e+00	
0.0000000000000000e+00	6.9000000000000006e-01	0.0000000000000000e+00	
0.0000000000000000e+00	6.9500000000000006e-01	0.0000000000000000e+00	
0.0000000000000000e+00	7.0000000000000007e-01	0.0000000000000000e+00	
0.0000000000000000e+00	7.0499999999999996e-01	0.0000000000000000e+00	
0.0000000000000000e+00	7.0999999999999996e-01	0.0000000000000000e+00	
0.0000000000000000e+00	7.1499999999999997e-01	0.0000000000000000e+00	
0.0000000000000000e+00	7.1999999999999997e-01	0.0000000000000000e+00	
0.0000000000000000e+00	7.2499999999999998e-01	0.0000000000000000e+00	
0.0000000000000000e+00	7.2999999999999998e-01	0.0000000000000000e+00	
0.0000000000000000e+00	7.3499999999999999e-01	0.0000000000000000e+00	
0.0000000000000000e+00	7.3999999999999999e-01	0.0000000000000000e+00	
0.0000000000000000e+00	7.4500000000000000e-01	0.0000000000000000e+00	
0.0000000000000000e+00	7.5000000000000000e-01	0.0000000000000000e+00	
0.0000000000000000e+00	7.5500000000000000e-01	0.0000000000000000e+00	
0.0000000000000000e+00	7.6000000000000001e-01	0.0000000000000000e+00	
0.0000000000000000e+00	7.6500000000000001e-01	0.0000000000000000e+00	
0.0000000000000000e+00	7.7000000000000002e-01	0.0000000000000000e+00	
0.0000000000000000e+00	7.7500000000000002e-01	0.0000000000000000e+00	
0.0000000000000000e+00	7.8000000000000003e-01	0.0000000000000000e+00	
0.0000000000000000e+00	7.8500000000000003e-01	0.0000000000000000e+00	
0.0000000000000000e+00	7.9000000000000004e-01	0.0000000000000000e+00	
0.0000000000000000e+00	7.9500000000000004e-01	0.0000000000000000e+00	
0.0000000000000000e+00	8.0000000000000004e-01	0.0000000000000000e+00	
0.0000000000000000e+00	8.0500000000000005e-01	0.0000000000000000e+00	
0.0000000000000000e+00	8.1000000000000005e-01	0.0000000000000000e+00	
0.0000000000000000e+00	8.1500000000000006e-01	0.0000000000000000e+00	
0.0000000000000000e+00	8.2000000000000006e-01	0.0000000000000000e+00	
0.0000000000000000e+00	8.2500000000000007e-01	0.0000000000000000e+00	
0.0000000000000000e+00	8.3000000000000007e-01	0.0000000000000000e+00	
0.0000000000000000e+00	8.3499999999999996e-01	0.0000000000000000e+00	
0.0000000000000000e+00	8.3999999999999997e-01	0.0000000000000000e+00	
0.0000000000000000e+00	8.4499999999999997e-01	0.0000000000000000e+00	
0.0000000000000000e+00	8.4999999999999998e-01	0.0000000000000000e+00	
0.0000000000000000e+00	8.5499999999999998e-01	0.0000000000000000e+00	
0.0000000000000000e+00	8.5999999999999999e-01	0.0000000000000000e+00	
0.0000000000000000e+00	8.6499999999999999e-01	0.0000000000000000e+00	
0.0000000000000000e+00	8.7000000000000000e-01	0.0000000000000000e+00	
0.0000000000000000e+00	8.7500000000000000e-01	0.0000000000000000e+00	
0.0000000000000000e+00	8.8000000000000000e-01	0.0000000000000000e+00	
0.0000000000000000e+00	8.8500000000000001e-01	0.0000000000000000e+00	
0.0000000000000000e+00	8.9000000000000001e-01	0.0000000000000000e+00	
0.0000000000000000e+00	8.9500000000000002e-01	0.0000000000000000e+00	
0.0000000000000000e+00	9.0000000000000002e-01	0.0000000000000000e+00	
0.0000000000000000e+00	9.0500000000000003e-01	0.0000000000000000e+00	
0.0000000000000000e+00	9.1000000000000003e-01	0.0000000000000000e+00	
0.0000000000000000e+00	9.1500000000000004e-01	0.0000000000000000e+00	
0.0000000000000000e+00	9.2000000000000004e-01	0.0000000000000000e+00	
0.0000000000000000e+00	9.2500000000000004e-01	0.0000000000000000e+00	
0.0000000000000000e+00	9.3000000000000005e-01	0.0000000000000000e+00	
0.0000000000000000e+00	9.3500000000000005e-01	0.0000000000000000e+00	
0.0000000000000000e+00	9.4000000000000006e-01	0.0000000000000000e+00	
0.0000000000000000e+00	9.4500000000000006e-01	0.0000000000000000e+00	
0.0000000000000000e+00	9.5000000000000007e-01	0.0000000000000000e+00	
0.0000000000000000e+00	9.5500000000000007e-01	0.0000000000000000e+00	
0.0000000000000000e+00	9.5999999999999996e-01	0.0000000000000000e+00	
0.0000000000000000e+00	9.6499999999999997e-01	0.0000000000000000e+00	
0.0000000000000000e+00	9.6999999999999997e-01	0.0000000000000000e+00	
0.0000000000000000e+00	9.7499999999999998e-01	0.0000000000000000e+00	
0.0000000000000000e+00	9.7999999999999998e-01	0.0000000000000000e+00	
0.0000000000000000e+00	9.8499999999999999e-01	0.0000000000000000e+00	
0.0000000000000000e+00	9.8999999999999999e-01	0.0000000000000000e+00	
0.0000000000000000e+00	9.9500000000000000e-01	0.0000000000000000e+00	
0.0000000000000000e+00	1.0000000000000000e+00	0.0000000000000000e+00	
5.0000000000000001e-03	0.0000000000000000e+00	0.0000000000000000e+00	
5.0000000000000001e-03	5.0000000000000001e-03	1.4055593833026358e-17	
5.0000000000000001e-03	1.0000000000000000e-02	8.8624367428800497e-18	
5.0000000000000001e-03	1.4999999999999999e-02	-4.1281254018287827e-17	
5.0000000000000001e-03	2.0000000000000000e-02	-9.3261303109820379e-17	
5.0000000000000001e-03	2.5000000000000001e-02	1.4974587191210252e-16	
5.0000000000000001e-03	2.9999999999999999e-02	2.7158951175866484e-16	
5.0000000000000001e-03	3.5000000000000003e-02	-1.9711058211553568e-16	
5.0000000000000001e-03	4.0000000000000001e-02	-3.7854742824119579e-16	
5.0000000000000001e-03	4.4999999999999998e-02	-3.4836419463972450e-16	
5.0000000000000001e-03	5.0000000000000003e-02	5.5850287642201388e-13	
5.0000000000000001e-03	5.5000000000000000e-02	-5.3479836772987374e-17	
5.0000000000000001e-03	5.9999999999999998e-02	2.6528958786921342e-16	
5.0000000000000001e-03	6.5000000000000002e-02	2.9123352281181577e-16	
5.0000000000000001e-03	7.0000000000000007e-02	-3.3949145476048315e-17	
5.0000000000000001e-03	7.4999999999999997e-02	1.1835224997026601e-16	
5.0000000000000001e-03	8.0000000000000002e-02	4.8675339214234472e-17	
5.0000000000000001e-03	8.5000000000000006e-02	2.5695412910228977e-17	
5.0000000000000001e-03	8.9999999999999997e-02	-4.7604491853385739e-17	
5.0000000000000001e-03	9.5000000000000001e-02	4.2884718007114304e-17	
5.0000000000000001e-03	1.0000000000000001e-01	-1.3508373658567732e-18	
5.0000000000000001e-03	1.0500000000000000e-01	2.5501613381543779e-17	
5.0000000000000001e-03	1.1000000000000000e-01	-9.1141241833625335e-18	
5.0000000000000001e-03	1.1500000000000000e-01	2.0606524042134919e-18	
5.0000000000000001e-03	1.2000000000000000e-01	-1.5788311610891990e-17	
5.0000000000000001e-03	1.2500000000000000e-01	5.7450393392286505e-18	
5.0000000000000001e-03	1.3000000000000000e-01	2.3505021599366877e-17	
5.0000000000000001e-03	1.3500000000000001e-01	2.3648265024867445e-17	
5.0000000000000001e-03	1.4000000000000001e-01	-1.2059702068786945e-17	
5.0000000000000001e-03	1.4499999999999999e-01	2.4177503028244147e-17	
5.0000000000000001e-03	1.4999999999999999e-01	-4.6023575379751339e-17	
5.0000000000000001e-03	1.5500000000000000e-01	-3.9128793585065224e-18	
5.0000000000000001e-03	1.6000000000000000e-01	1.2293027443945161e-17	
5.0000000000000001e-03	1.6500000000000001e-01	-1.2691261212542071e-17	
5.0000000000000001e-03	1.7000000000000001e-01	2.1819061242631271e-18	
5.0000000000000001e-03	1.7500000000000002e-01	2.2375293270036764e-18	
5.0000000000000001e-03	1.7999999999999999e-01	-3.5578786729937513e-18	
5.0000000000000001e-03	1.8500000000000000e-01	-6.7936500933645694e-18	
5.0000000000000001e-03	1.9000000000000000e-01	-1.9850162611475602e-18	
5.0000000000000001e-03	1.9500000000000001e-01	-3.8948745860939104e-18	
5.0000000000000001e-03	2.0000000000000001e-01	8.5777769710107834e-18	
5.0000000000000001e-03	2.0500000000000002e-01	-4.1907564795830369e-18	
5.0000000000000001e-03	2.0999999999999999e-01	-3.5103077092792468e-18	
5.0000000000000001e-03	2.1500000000000000e-01	-6.9276331234667466e-18	
5.0000000000000001e-03	2.2000000000000000e-01	-2.9860863347370330e-18	
5.0000000000000001e-03	2.2500000000000001e-01	6.2715537196225185e-18	
5.0000000000000001e-03	2.3000000000000001e-01	9.1740684716170515e-18	
5.0000000000000001e-03	2.3500000000000001e-01	9.1643009430649542e-18	
5.0000000000000001e-03	2.3999999999999999e-01	-8.7375249454751700e-18	
5.0000000000000001e-03	2.4500000000000000e-01	-1.1901083401218254e-17	
5.0000000000000001e-03	2.5000000000000000e-01	1.0065076840314632e-17	
5.0000000000000001e-03	2.5500000000000000e-01	1.2516330347256189e-17	
5.0000000000000001e-03	2.6000000000000001e-01	1.5909559910318758e-18	
5.0000000000000001e-03	2.6500000000000001e-01	4.9486148274891905e-18	
5.0000000000000001e-03	2.7000000000000002e-01	3.3601825224282582e-18	
5.0000000000000001e-03	2.7500000000000002e-01	6.1385048470442901e-19	
5.0000000000000001e-03	2.8000000000000003e-01	3.4536439945501240e-18	
5.0000000000000001e-03	2.8500000000000003e-01	-2.8312954543843562e-18	
5.0000000000000001e-03	2.8999999999999998e-01	5.0315399154168410e-18	
5.0000000000000001e-03	2.9499999999999998e-01	-2.4463889690980680e-18	
5.0000000000000001e-03	2.9999999999999999e-01	-1.6977313684760977e-18	
5.0000000000000001e-03	3.0499999999999999e-01	2.3570149239706882e-18	
5.0000000000000001e-03	3.1000000000000000e-01	1.8145233131143259e-18	
5.0000000000000001e-03	3.1500000000000000e-01	2.3375564484662977e-18	
5.0000000000000001e-03	3.2000000000000001e-01	5.7676790447564344e-19	
5.0000000000000001e-03	3.2500000000000001e-01	-1.7499126623744998e-18	
5.0000000000000001e-03	3.3000000000000002e-01	-4.8837431607939769e-18	
5.0000000000000001e-03	3.3500000000000002e-01	-6.3099934469568622e-18	
5.0000000000000001e-03	3.4000000000000002e-01	5.1342416774102113e-18	
5.0000000000000001e-03	3.4500000000000003e-01	-1.8408602529568750e-18	
5.0000000000000001e-03	3.5000000000000003e-01	5.4280478376888732e-18	
5.0000000000000001e-03	3.5499999999999998e-01	1.1830907867664198e-18	
5.0000000000000001e-03	3.5999999999999999e-01	-1.3825621944009372e-18	
5.0000000000000001e-03	3.6499999999999999e-01	1.7576982943028229e-18	
5.0000000000000001e-03	3.7000000000000000e-01	-2.7397218436400210e-19	
5.0000000000000001e-03	3.7500000000000000e-01	-1.7031705875172666e-18	
5.0000000000000001e-03	3.8000000000000000e-01	2.1829207208542339e-18	
5.0000000000000001e-03	3.8500000000000001e-01	1.8909032716106165e-18	
5.0000000000000001e-03	3.9000000000000001e-01	2.3825004556237703e-18	
5.0000000000000001e-03	3.9500000000000002e-01	-4.1862202506007079e-20	
5.0000000000000001e-03	4.0000000000000002e-01	-1.1952976610630322e-18	
5.0000000000000001e-03	4.0500000000000003e-01	-1.1158291270005756e-18	
5.0000000000000001e-03	4.1000000000000003e-01	8.2946083259247625e-19	
5.0000000000000001e-03	4.1500000000000004e-01	-7.0230038953047354e-19	
5.0000000000000001e-03	4.1999999999999998e-01	-1.4251405568000971e-18	
5.0000000000000001e-03	4.2499999999999999e-01	1.1977843400018774e-18	
5.0000000000000001e-03	4.2999999999999999e-01	3.7666266142008632e-18	
5.0000000000000001e-03	4.3500000000000000e-01	-2.9602831285500731e-18	
5.0000000000000001e-03	4.4000000000000000e-01	2.8569895016902331e-18	
5.0000000000000001e-03	4.4500000000000001e-01	2.9517034626034291e-18	
5.0000000000000001e-03	4.5000000000000001e-01	-8.3032029331901165e-18	
5.0000000000000001e-03	4.5500000000000002e-01	-1.7339967626405279e-18	
5.0000000000000001e-03	4.6000000000000002e-01	-2.3940840055345622e-18	
5.0000000000000001e-03	4.6500000000000002e-01	-2.6376797904004829e-18	
5.0000000000000001e-03	4.7000000000000003e-01	1.6761811585399507e-18	
5.0000000000000001e-03	4.7500000000000003e-01	-1.5361746002987758e-18	
5.0000000000000001e-03	4.7999999999999998e-01	-1.1585743805233912e-18	
5.0000000000000001e-03	4.8499999999999999e-01	1.0193205592234823e-18	
5.0000000000000001e-03	4.8999999999999999e-01	-1.8854556876490757e-19	
5.0000000000000001e-03	4.9500000000000000e-01	-5.9340211631774014e-19	
5.0000000000000001e-03	5.0000000000000000e-01	2.5473477896386509e-18	
5.0000000000000001e-03	5.0500000000000000e-01	1.9520992578193834e-20	
5.0000000000000001e-03	5.1000000000000001e-01	-6.0980810951212129e-19	
5.0000000000000001e-03	5.1500000000000001e-01	-4.3923411500349186e-19	
5.0000000000000001e-03	5.2000000000000002e-01	3.9047224781839171e-19	
5.0000000000000001e-03	5.2500000000000002e-01	-1.0726377186806939e-19	
5.0000000000000001e-03	5.3000000000000003e-01	2.3946540920735883e-19	
5.0000000000000001e-03	5.3500000000000003e-01	-4.6509576427035539e-19	
5.0000000000000001e-03	5.4000000000000004e-01	-8.2310252291867651e-19	
5.0000000000000001e-03	5.4500000000000004e-01	5.3983188512506963e-19	
5.0000000000000001e-03	5.5000000000000004e-01	2.6222259746428001e-19	
5.0000000000000001e-03	5.5500000000000005e-01	-4.3388547077558616e-18	
5.0000000000000001e-03	5.6000000000000005e-01	1.5925001630707566e-18	
5.0000000000000001e-03	5.6500000000000006e-01	3.0712517852781933e-18	
5.0000000000000001e-03	5.7000000000000006e-01	-1.4512250458051420e-18	
5.0000000000000001e-03	5.7500000000000007e-01	4.1712538844096278e-19	
5.0000000000000001e-03	5.7999999999999996e-01	-2.2414244540417370e-18	
5.0000000000000001e-03	5.8499999999999996e-01	3.3128300451896316e-19	
5.0000000000000001e-03	5.8999999999999997e-01	-4.5983200012095536e-19	
5.0000000000000001e-03	5.9499999999999997e-01	6.2154702857701062e-19	
5.0000000000000001e-03	5.9999999999999998e-01	-9.6377390447089054e-19	
5.0000000000000001e-03	6.0499999999999998e-01	-1.2566501037247472e-18	
5.0000000000000001e-03	6.0999999999999999e-01	1.4622535962548908e-19	
5.0000000000000001e-03	6.1499999999999999e-01	2.1756648900637353e-18	
5.0000000000000001e-03	6.2000000000000000e-01	4.5325968425881866e-19	
5.0000000000000001e-03	6.2500000000000000e-01	-2.9061269134851444e-19	
5.0000000000000001e-03	6.3000000000000000e-01	-7.3506284998662582e-19	
5.0000000000000001e-03	6.3500000000000001e-01	1.6440523964986817e-18	
5.0000000000000001e-03	6.4000000000000001e-01	-1.7625964957378708e-18	
5.0000000000000001e-03	6.4500000000000002e-01	-1.3915042132358496e-18	
5.0000000000000001e-03	6.5000000000000002e-01	2.5329876477718978e-19	
5.0000000000000001e-03	6.5500000000000003e-01	2.2636741506745238e-18	
5.0000000000000001e-03	6.6000000000000003e-01	-1.8649434829162333e-18	
5.0000000000000001e-03	6.6500000000000004e-01	-2.9662301416277921e-18	
5.0000000000000001e-03	6.7000000000000004e-01	5.4107813625658477e-19	
5.0000000000000001e-03	6.7500000000000004e-01	-9.3177153717448715e-19	
5.0000000000000001e-03	6.8000000000000005e-01	5.4916558859884694e-19	
5.0000000000000001e-03	6.8500000000000005e-01	-5.7594241617242680e-19	
5.0000000000000001e-03	6.9000000000000006e-01	1.9689403148350460e-19	
5.0000000000000001e-03	6.9500000000000006e-01	-2.4018342957972199e-19	
5.0000000000000001e-03	7.0000000000000007e-01	-9.5531088659036227e-19	
5.0000000000000001e-03	7.0499999999999996e-01	-1.4949956299355917e-19	
5.0000000000000001e-03	7.0999999999999996e-01	2.5764572307077275e-19	
5.0000000000000001e-03	7.1499999999999997e-01	-1.7230987497959988e-19	
5.0000000000000001e-03	7.1999999999999997e-01	5.1381492794850879e-19	
5.0000000000000001e-03	7.2499999999999998e-01	-4.5062538649615228e-19	
5.0000000000000001e-03	7.2999999999999998e-01	2.7801152953560682e-21	
5.0000000000000001e-03	7.3499999999999999e-01	7.8210231458079155e-19	
5.0000000000000001e-03	7.3999999999999999e-01	-1.2095620232723637e-18	
5.0000000000000001e-03	7.4500000000000000e-01	3.6710858394608429e-19	
5.0000000000000001e-03	7.5000000000000000e-01	-5.2726467105061191e-19	
5.0000000000000001e-03	7.5500000000000000e-01	1.4238103800273396e-20	
5.0000000000000001e-03	7.6000000000000001e-01	8.6966887010576487e-19	
5.0000000000000001e-03	7.6500000000000001e-01	-3.0577268231969129e-20	
5.0000000000000001e-03	7.7000000000000002e-01	1.0520551053017733e-18	
5.0000000000000001e-03	7.7500000000000002e-01	7.5494699096885679e-19	
5.0000000000000001e-03	7.8000000000000003e-01	5.4751460418705341e-19	
5.0000000000000001e-03	7.8500000000000003e-01	-5.6621783655645283e-19	
5.0000000000000001e-03	7.9000000000000004e-01	-7.6863395714020870e-19	
5.0000000000000001e-03	7.9500000000000004e-01	-7.1961908454438042e-19	
5.0000000000000001e-03	8.0000000000000004e-01	3.4919670462398251e-19	
5.0000000000000001e-03	8.0500000000000005e-01	1.0722091580014287e-18	
5.0000000000000001e-03	8.1000000000000005e-01	-1.2474781453938791e-19	
5.0000000000000001e-03	8.1500000000000006e-01	-8.5429252886604702e-19	
5.0000000000000001e-03	8.2000000000000006e-01	-5.6351319949743965e-19	
5.0000000000000001e-03	8.2500000000000007e-01	4.2674088460046388e-19	
5.0000000000000001e-03	8.3000000000000007e-01	-4.9180693636258549e-19	
5.0000000000000001e-03	8.3499999999999996e-01	-1.2294003451354250e-18	
5.0000000000000001e-03	8.3999999999999997e-01	1.0409386761382125e-18	
5.0000000000000001e-03	8.4499999999999997e-01	1.5344518397093970e-18	
5.0000000000000001e-03	8.4999999999999998e-01	-3.3244298509003731e-19	
5.0000000000000001e-03	8.5499999999999998e-01	-6.5825421255727063e-19	
5.0000000000000001e-03	8.5999999999999999e-01	1.9176185526281788e-18	
5.0000000000000001e-03	8.6499999999999999e-01	2.2865791345985435e-18	
5.0000000000000001e-03	8.7000000000000000e-01	-1.8917128983665613e-18	
5.0000000000000001e-03	8.7500000000000000e-01	-3.0943022134034900e-19	
5.0000000000000001e-03	8.8000000000000000e-01	-3.0490434242766088e-20	
5.0000000000000001e-03	8.8500000000000001e-01	7.0760327963998813e-19	
5.0000000000000001e-03	8.9000000000000001e-01	-2.6014304747817330e-19	
5.0000000000000001e-03	8.9500000000000002e-01	9.1481830063878349e-19	
5.0000000000000001e-03	9.0000000000000002e-01	1.1666735272550414e-18	
5.0000000000000001e-03	9.0500000000000003e-01	-2.9807492302504135e-19	
5.0000000000000001e-03	9.1000000000000003e-01	3.6165277984206045e-20	
5.0000000000000001e-03	9.1500000000000004e-01	3.0772964291704114e-19	
5.0000000000000001e-03	9.2000000000000004e-01	6.3925799221022999e-19	
5.0000000000000001e-03	9.2500000000000004e-01	-4.2120901071612555e-20	
5.0000000000000001e-03	9.3000000000000005e-01	-8.4796834218295033e-20	
5.0000000000000001e-03	9.3500000000000005e-01	1.0908864855552954e-18	
5.0000000000000001e-03	9.4000000000000006e-01	1.0467520682027310e-18	
5.0000000000000001e-03	9.4500000000000006e-01	8.4419388852165727e-19	
5.0000000000000001e-03	9.5000000000000007e-01	2.9803641441461579e-18	
5.0000000000000001e-03	9.5500000000000007e-01	2.8755982716882315e-18	
5.0000000000000001e-03	9.5999999999999996e-01	-1.4043546808527923e-18	
5.0000000000000001e-03	9.6499999999999997e-01	-9.5327029023248534e-19	
5.0000000000000001e-03	9.6999999999999997e-01	4.0384670826552491e-19	
5.0000000000000001e-03	9.7499999999999998e-01	1.1235929069873732e-19	
5.0000000000000001e-03	9.7999999999999998e-01	-9.2149782281594716e-20	
5.0000000000000001e-03	9.8499999999999999e-01	1.5114978616675106e-19	
5.0000000000000001e-03	9.8999999999999999e-01	2.4078050928867970e-19	
5.0000000000000001e-03	9.9500000000000000e-01	-1.3499590083175599e-19	
5.0000000000000001e-03	1.0000000000000000e+00	0.0000000000000000e+00	
1.0000000000000000e-02	0.0000000000000000e+00	0.0000000000000000e+00	
1.0000000000000000e-02	5.0000000000000001e-03	-4.8285637672408991e-17	
1.0000000000000000e-02	1.0000000000000000e-02	-7.7228060631445774e-17	
1.0000000000000000e-02	1.4999999999999999e-02	1.5133546021661003e-16	
1.0000000000000000e-02	2.0000000000000000e-02	-1.3214793315289354e-16	
1.0000000000000000e-02	2.5000000000000001e-02	1.5350150482894153e-16	
1.0000000000000000e-02	2.9999999999999999e-02	-1.5023866883255271e-16	
1.0000000000000000e-02	3.5000000000000003e-02	2.9699186209443150e-16	
1.0000000000000000e-02	4.0000000000000001e-02	-3.0608992293665840e-16	
1.0000000000000000e-02	4.4999999999999998e-02	-1.4032190578475243e-15	
1.0000000000000000e-02	5.0000000000000003e-02	-7.8695421477354355e-14	
1.0000000000000000e-02	5.5000000000000000e-02	6.7381716840721636e-16	
1.0000000000000000e-02	5.9999999999999998e-02	-2.4289166312035808e-16	
1.0000000000000000e-02	6.5000000000000002e-02	-3.9180324164090024e-16	
1.0000000000000000e-02	7.0000000000000007e-02	6.9042193008811434e-17	
1.0000000000000000e-02	7.4999999999999997e-02	-5.9171125925504140e-17	
1.0000000000000000e-02	8.0000000000000002e-02	3.9224671266515601e-17	
1.0000000000000000e-02	8.5000000000000006e-02	-4.4753432276804920e-17	
1.0000000000000000e-02	8.9999999999999997e-02	-4.8032760894746774e-17	
1.0000000000000000e-02	9.5000000000000001e-02	3.9983602797139328e-17	
1.0000000000000000e-02	1.0000000000000001e-01	-1.3509223357488066e-19	
1.0000000000000000e-02	1.0500000000000000e-01	1.5334587775493454e-17	
1.0000000000000000e-02	1.1000000000000000e-01	-5.0531314065549153e-17	